ITEM: TIMESTEP
0
ITEM: NUMBER OF ATOMS
400
ITEM: BOX BOUNDS pp pp pp
-3.0000000000000000e+01 3.0000000000000000e+01
-3.0000000000000000e+01 3.0000000000000000e+01
-3.0000000000000000e+01 3.0000000000000000e+01
ITEM: ATOMS id type xs ys zs ix iy iz
134 1 0.41165 0.0385 0.0124 0 0 0
33 1 0.498733 0.3841 0.00738333 0 0 0
229 1 0.726667 0.472183 0.00883333 0 0 0
386 1 0.603967 0.628167 0.0062 0 0 0
193 1 0.656817 0.652267 0.0199167 0 0 0
262 1 0.64655 0.70075 0.00293333 0 0 0
183 1 0.124067 0.733633 0.00943333 0 0 0
78 1 0.145683 0.166767 0.0449 0 0 0
216 1 0.585133 0.304867 0.0336333 0 0 0
46 1 0.569333 0.396833 0.0435667 0 0 0
165 1 0.721783 0.405167 0.0328667 0 0 0
140 1 0.420133 0.603483 0.02775 0 0 0
185 1 0.503 0.798417 0.0423 0 0 0
388 1 0.473617 0.546367 0.0685667 0 0 0
311 1 0.548467 0.661283 0.074 0 0 0
107 1 0.143 0.669683 0.0671 0 0 0
38 1 0.433683 0.8198 0.0595167 0 0 0
343 1 0.865517 0.32115 0.08375 0 0 0
30 1 0.63425 0.648533 0.0844667 0 0 0
177 1 0.309683 0.732167 0.07705 0 0 0
399 1 0.781967 0.0393 0.122583 0 0 0
213 1 0.666917 0.1092 0.118767 0 0 0
268 1 0.1858 0.3786 0.1271 0 0 0
302 1 0.4742 0.444117 0.112433 0 0 0
353 1 0.617017 0.466967 0.119833 0 0 0
21 1 0.1794 0.546333 0.117383 0 0 0
131 1 0.163267 0.558767 0.118617 0 0 0
23 1 0.717833 0.5437 0.11705 0 0 0
190 1 0.2852 0.621017 0.116783 0 0 0
273 1 0.656233 0.756983 0.12225 0 0 0
126 1 0.175267 0.0806167 0.133717 0 0 0
367 1 0.491883 0.38155 0.14725 0 0 0
87 1 0.921117 0.4603 0.152567 0 0 0
75 1 0.250067 0.47125 0.140033 0 0 0
106 1 0.397817 0.734417 0.149983 0 0 0
45 1 0.7319 0.84435 0.151517 0 0 0
226 1 0.582617 0.85945 0.146833 0 0 0
101 1 0.400133 0.216883 0.168617 0 0 0
392 1 0.369333 0.46795 0.158217 0 0 0
218 1 0.475917 0.621117 0.177083 0 0 0
36 1 0.971617 0.0912667 0.198917 0 0 0
129 1 0.911767 0.242367 0.200117 0 0 0
208 1 0.175317 0.260133 0.19675 0 0 0
112 1 0.31895 0.273617 0.199367 0 0 0
314 1 0.646883 0.626783 0.196167 0 0 0
155 1 0.6158 0.780833 0.19425 0 0 0
13 1 0.248883 0.7967 0.196283 0 0 0
227 1 0.405883 0.957067 0.203217 0 0 0
123 1 0.31755 0.377433 0.209733 0 0 0
119 1 0.839333 0.478533 0.218633 0 0 0
329 1 0.793917 0.604467 0.22365 0 0 0
379 1 0.340983 0.769783 0.223017 0 0 0
17 1 0.0241167 0.33095 0.24085 0 0 0
328 1 0.00266667 0.338717 0.2441 0 0 0
54 1 0.673167 0.546167 0.24275 0 0 0
69 1 0.679567 0.564017 0.2347 0 0 0
366 1 0.4671 0.6028 0.246 0 0 0
243 1 0.361317 0.618233 0.243383 0 0 0
16 1 0.170433 0.658767 0.254167 0 0 0
25 1 0.356583 0.85135 0.254333 0 0 0
397 1 0.990883 0.21185 0.271767 0 0 0
330 1 0.363833 0.2932 0.270717 0 0 0
4 1 0.659467 0.291817 0.272967 0 0 0
178 1 0.333917 0.491117 0.273333 0 0 0
387 1 0.668567 0.5289 0.259967 0 0 0
234 1 0.4156 0.555233 0.27185 0 0 0
255 1 0.851817 0.651767 0.260967 0 0 0
153 1 0.129217 0.74165 0.2723 0 0 0
58 1 0.358133 0.7312 0.280633 0 0 0
371 1 0.622033 0.813983 0.263183 0 0 0
92 1 0.2351 0.917617 0.269083 0 0 0
235 1 0.407183 0.90655 0.26265 0 0 0
332 1 0.260233 0.9607 0.268867 0 0 0
166 1 0.83035 0.0488833 0.294983 0 0 0
296 1 0.993533 0.03215 0.295233 0 0 0
247 1 0.524633 0.0577167 0.2875 0 0 0
24 1 0.901983 0.4363 0.307017 0 0 0
161 1 0.244683 0.637483 0.299017 0 0 0
99 1 0.731683 0.920283 0.301617 0 0 0
342 1 0.609167 0.9648 0.302967 0 0 0
326 1 0.939733 0.106017 0.328017 0 0 0
118 1 0.832933 0.282217 0.309167 0 0 0
244 1 0.77935 0.390417 0.309333 0 0 0
120 1 0.1712 0.676333 0.330633 0 0 0
100 1 0.435167 0.675833 0.333183 0 0 0
259 1 0.569367 0.695867 0.319983 0 0 0
362 1 0.592483 0.73825 0.327383 0 0 0
79 1 0.08475 0.885417 0.32845 0 0 0
2 1 0.32995 0.00551667 0.349 0 0 0
253 1 0.647983 0.000933333 0.354267 0 0 0
91 1 0.528817 0.20325 0.339767 0 0 0
334 1 0.2431 0.226383 0.336 0 0 0
180 1 0.4074 0.260967 0.353767 0 0 0
160 1 0.379167 0.3595 0.351033 0 0 0
295 1 0.474583 0.367667 0.33685 0 0 0
7 1 0.8257 0.468017 0.335183 0 0 0
115 1 0.3506 0.5826 0.3376 0 0 0
22 1 0.30625 0.600433 0.3495 0 0 0
301 1 0.51935 0.738133 0.339217 0 0 0
304 1 0.98265 0.742433 0.3578 0 0 0
113 1 0.469433 0.9244 0.3588 0 0 0
64 1 0.900067 0.967317 0.344583 0 0 0
42 1 0.13875 0.1504 0.3737 0 0 0
358 1 0.74365 0.2066 0.372583 0 0 0
354 1 0.47445 0.296467 0.37565 0 0 0
223 1 0.364183 0.38375 0.38275 0 0 0
348 1 0.893667 0.38265 0.371867 0 0 0
205 1 0.364967 0.482333 0.3658 0 0 0
384 1 0.248167 0.512633 0.36395 0 0 0
261 1 0.8864 0.49425 0.378567 0 0 0
390 1 0.636883 0.522 0.378167 0 0 0
306 1 0.757633 0.530933 0.378633 0 0 0
277 1 0.567133 0.638533 0.362083 0 0 0
266 1 0.793783 0.68675 0.362267 0 0 0
258 1 0.871667 0.800883 0.375617 0 0 0
207 1 0.39105 0.0713167 0.403833 0 0 0
50 1 0.223667 0.405833 0.398233 0 0 0
320 1 0.127717 0.624883 0.4084 0 0 0
170 1 0.204517 0.6589 0.39175 0 0 0
198 1 0.409433 0.64495 0.407267 0 0 0
191 1 0.53095 0.67455 0.40655 0 0 0
186 1 0.319617 0.743267 0.404117 0 0 0
61 1 0.6803 0.734567 0.393517 0 0 0
318 1 0.798083 0.7349 0.3957 0 0 0
10 1 0.145517 0.761183 0.384667 0 0 0
150 1 0.442517 0.786717 0.39775 0 0 0
34 1 0.983633 0.796533 0.408117 0 0 0
11 1 0.09285 0.943217 0.398083 0 0 0
238 1 0.886683 0.0279167 0.42635 0 0 0
149 1 0.59075 0.1954 0.419183 0 0 0
85 1 0.20225 0.223967 0.425333 0 0 0
250 1 0.468 0.22765 0.4344 0 0 0
321 1 0.643883 0.252817 0.4121 0 0 0
372 1 0.62585 0.340217 0.43295 0 0 0
159 1 0.460317 0.359267 0.419333 0 0 0
385 1 0.810667 0.402933 0.432467 0 0 0
375 1 0.629867 0.419617 0.4145 0 0 0
158 1 0.72705 0.478333 0.419667 0 0 0
206 1 0.1362 0.498733 0.4223 0 0 0
351 1 0.396017 0.503767 0.412267 0 0 0
225 1 0.372283 0.52715 0.42225 0 0 0
209 1 0.651917 0.544167 0.420883 0 0 0
374 1 0.6874 0.571967 0.415933 0 0 0
136 1 0.42695 0.709067 0.431617 0 0 0
278 1 0.69285 0.7516 0.429283 0 0 0
275 1 0.11965 0.790717 0.414617 0 0 0
289 1 0.306233 0.8033 0.428867 0 0 0
361 1 0.88005 0.805683 0.423733 0 0 0
276 1 0.611583 0.825083 0.4305 0 0 0
60 1 0.391867 0.0877 0.444283 0 0 0
132 1 0.484083 0.0810667 0.43805 0 0 0
319 1 0.230683 0.326067 0.452767 0 0 0
395 1 0.604983 0.399733 0.447433 0 0 0
312 1 0.716283 0.463867 0.459933 0 0 0
324 1 0.6911 0.499783 0.436667 0 0 0
391 1 0.59675 0.59185 0.445433 0 0 0
242 1 0.722083 0.610583 0.4395 0 0 0
70 1 0.913067 0.632017 0.439717 0 0 0
292 1 0.769383 0.685767 0.44395 0 0 0
28 1 0.3716 0.73515 0.454433 0 0 0
56 1 0.191067 0.760017 0.460267 0 0 0
224 1 0.45715 0.7458 0.450433 0 0 0
40 1 0.310167 0.794333 0.44875 0 0 0
381 1 0.944 0.796617 0.44615 0 0 0
163 1 0.981017 0.87775 0.459283 0 0 0
145 1 0.2823 0.89925 0.44565 0 0 0
3 1 0.20485 0.9906 0.460417 0 0 0
344 1 0.566533 0.9816 0.43675 0 0 0
398 1 0.662933 0.98155 0.437 0 0 0
93 1 0.0741167 0.0143 0.482067 0 0 0
88 1 0.705467 0.0891667 0.4791 0 0 0
201 1 0.625567 0.123183 0.472283 0 0 0
173 1 0.0687833 0.1984 0.469067 0 0 0
373 1 0.699783 0.195917 0.466783 0 0 0
89 1 0.43515 0.24395 0.474483 0 0 0
272 1 0.544783 0.27295 0.4692 0 0 0
350 1 0.340917 0.305117 0.47205 0 0 0
376 1 0.362583 0.322717 0.462233 0 0 0
368 1 0.5571 0.384033 0.4622 0 0 0
202 1 0.139433 0.400517 0.485967 0 0 0
102 1 0.442417 0.447417 0.465083 0 0 0
251 1 0.741667 0.445633 0.479083 0 0 0
154 1 0.272517 0.538333 0.469167 0 0 0
194 1 0.635217 0.6889 0.478917 0 0 0
110 1 0.0865333 0.756083 0.465583 0 0 0
164 1 0.72065 0.75835 0.47415 0 0 0
315 1 0.6915 0.7957 0.465783 0 0 0
378 1 0.778783 0.98405 0.466367 0 0 0
84 1 0.4634 0.0266333 0.506117 0 0 0
377 1 0.64275 0.0936167 0.504017 0 0 0
279 1 0.161283 0.128133 0.50595 0 0 0
252 1 0.721883 0.22085 0.495183 0 0 0
53 1 0.910233 0.295783 0.508933 0 0 0
80 1 0.2002 0.34645 0.506867 0 0 0
382 1 0.628333 0.359083 0.494867 0 0 0
369 1 0.659617 0.393367 0.50795 0 0 0
138 1 0.6976 0.4049 0.508267 0 0 0
122 1 0.39755 0.477783 0.493017 0 0 0
71 1 0.312533 0.612483 0.498967 0 0 0
167 1 0.46465 0.710167 0.487233 0 0 0
239 1 0.475583 0.71795 0.502933 0 0 0
294 1 0.535117 0.768117 0.505717 0 0 0
157 1 0.0447167 0.807483 0.495917 0 0 0
322 1 0.525617 0.85855 0.49185 0 0 0
240 1 0.516883 0.890833 0.497983 0 0 0
181 1 0.490733 0.929433 0.5004 0 0 0
51 1 0.133217 0.27895 0.51935 0 0 0
125 1 0.776517 0.313517 0.533467 0 0 0
47 1 0.83735 0.35065 0.529883 0 0 0
246 1 0.406883 0.3898 0.523667 0 0 0
127 1 0.561983 0.445383 0.517383 0 0 0
29 1 0.599233 0.507167 0.523583 0 0 0
130 1 0.960583 0.582717 0.51745 0 0 0
133 1 0.514567 0.595717 0.517783 0 0 0
267 1 0.286967 0.668767 0.52085 0 0 0
393 1 0.0110667 0.838567 0.528233 0 0 0
184 1 0.683733 0.914267 0.5189 0 0 0
114 1 0.2596 0.0292667 0.5612 0 0 0
338 1 0.525817 0.135583 0.543733 0 0 0
339 1 0.268083 0.210483 0.5463 0 0 0
116 1 0.318833 0.314867 0.553133 0 0 0
383 1 0.762617 0.329417 0.554017 0 0 0
260 1 0.57665 0.368117 0.5531 0 0 0
297 1 0.813517 0.50005 0.562383 0 0 0
63 1 0.356617 0.558417 0.5574 0 0 0
37 1 0.164283 0.574817 0.542217 0 0 0
363 1 0.380717 0.564767 0.55965 0 0 0
389 1 0.7626 0.5759 0.547817 0 0 0
217 1 0.553483 0.640083 0.562767 0 0 0
95 1 0.18085 0.70835 0.561483 0 0 0
349 1 0.539 0.698567 0.552933 0 0 0
73 1 0.711683 0.712067 0.541983 0 0 0
62 1 0.362033 0.802267 0.557217 0 0 0
323 1 0.808117 0.04035 0.577667 0 0 0
59 1 0.64665 0.0657333 0.583733 0 0 0
291 1 0.0705833 0.16515 0.583833 0 0 0
172 1 0.108217 0.436717 0.572033 0 0 0
280 1 0.701933 0.458233 0.569183 0 0 0
117 1 0.438 0.477717 0.567117 0 0 0
174 1 0.4575 0.491917 0.574867 0 0 0
288 1 0.195883 0.521917 0.5706 0 0 0
231 1 0.245783 0.532883 0.587267 0 0 0
245 1 0.582017 0.538383 0.5803 0 0 0
187 1 0.2937 0.607967 0.566817 0 0 0
98 1 0.917833 0.70515 0.572933 0 0 0
365 1 0.623167 0.77645 0.57315 0 0 0
337 1 0.396333 0.98795 0.588 0 0 0
236 1 0.3203 0.0467333 0.613317 0 0 0
249 1 0.1444 0.153517 0.615333 0 0 0
214 1 0.918383 0.337583 0.596017 0 0 0
336 1 0.904583 0.466983 0.5924 0 0 0
128 1 0.1944 0.6926 0.607 0 0 0
44 1 0.190017 0.856633 0.599867 0 0 0
18 1 0.305017 0.994083 0.593767 0 0 0
1 1 0.934017 0.03555 0.626933 0 0 0
35 1 0.199033 0.175483 0.620933 0 0 0
347 1 0.413883 0.170033 0.618283 0 0 0
298 1 0.8071 0.19755 0.635633 0 0 0
331 1 0.9233 0.197733 0.616033 0 0 0
74 1 0.302483 0.230017 0.628867 0 0 0
357 1 0.850933 0.2518 0.623233 0 0 0
355 1 0.650933 0.3312 0.635683 0 0 0
169 1 0.09345 0.343033 0.626617 0 0 0
241 1 0.716533 0.37285 0.625483 0 0 0
41 1 0.992917 0.397267 0.623083 0 0 0
282 1 0.381067 0.4946 0.640583 0 0 0
77 1 0.418 0.4917 0.616217 0 0 0
204 1 0.605617 0.50725 0.6302 0 0 0
281 1 0.666017 0.5872 0.633133 0 0 0
175 1 0.831067 0.581633 0.618867 0 0 0
141 1 0.205883 0.597917 0.6185 0 0 0
179 1 0.668867 0.636683 0.631617 0 0 0
146 1 0.60585 0.662583 0.628383 0 0 0
307 1 0.686117 0.7668 0.628367 0 0 0
237 1 0.880667 0.758333 0.623117 0 0 0
400 1 0.585867 0.78075 0.6286 0 0 0
76 1 0.8717 0.773517 0.6247 0 0 0
313 1 0.782617 0.832833 0.638317 0 0 0
66 1 0.511733 0.869533 0.637617 0 0 0
380 1 0.7706 0.917467 0.6332 0 0 0
257 1 0.283833 0.990767 0.637283 0 0 0
144 1 0.0408167 0.373 0.656517 0 0 0
97 1 0.625867 0.36165 0.647283 0 0 0
310 1 0.64585 0.40765 0.641817 0 0 0
197 1 0.25315 0.418183 0.6562 0 0 0
94 1 0.561583 0.496433 0.664383 0 0 0
32 1 0.618333 0.56295 0.665217 0 0 0
196 1 0.294333 0.579017 0.6511 0 0 0
219 1 0.247333 0.6454 0.6642 0 0 0
309 1 0.687733 0.69265 0.6643 0 0 0
299 1 0.968417 0.7782 0.646383 0 0 0
14 1 0.286817 0.93 0.6458 0 0 0
232 1 0.745367 0.924783 0.64985 0 0 0
274 1 0.280333 0.979867 0.65535 0 0 0
189 1 0.624533 0.0671333 0.685517 0 0 0
104 1 0.200833 0.118417 0.67415 0 0 0
96 1 0.474667 0.114183 0.684133 0 0 0
135 1 0.234233 0.155167 0.680067 0 0 0
221 1 0.960183 0.429133 0.682017 0 0 0
248 1 0.539067 0.447683 0.677683 0 0 0
287 1 0.153767 0.542733 0.673217 0 0 0
156 1 0.343917 0.568533 0.68235 0 0 0
286 1 0.893583 0.6109 0.6746 0 0 0
162 1 0.190917 0.6158 0.679167 0 0 0
396 1 0.628983 0.0859667 0.713 0 0 0
335 1 0.681383 0.27035 0.71505 0 0 0
327 1 0.689733 0.298683 0.69725 0 0 0
12 1 0.3306 0.549567 0.694533 0 0 0
143 1 0.403083 0.5558 0.704867 0 0 0
124 1 0.566467 0.5579 0.692833 0 0 0
233 1 0.288867 0.597517 0.706467 0 0 0
19 1 0.131433 0.6662 0.694733 0 0 0
333 1 0.58555 0.644133 0.705667 0 0 0
356 1 0.320783 0.816 0.695283 0 0 0
27 1 0.3765 0.9167 0.698817 0 0 0
346 1 0.5547 0.984867 0.69985 0 0 0
359 1 0.869467 0.15445 0.7229 0 0 0
303 1 0.44125 0.335117 0.729033 0 0 0
147 1 0.2532 0.368933 0.7248 0 0 0
49 1 0.520617 0.382783 0.720983 0 0 0
285 1 0.0357 0.390117 0.72445 0 0 0
65 1 0.02395 0.48235 0.72255 0 0 0
26 1 0.238117 0.643933 0.736817 0 0 0
264 1 0.369217 0.66425 0.731433 0 0 0
15 1 0.826617 0.730117 0.736067 0 0 0
195 1 0.285317 0.766 0.735483 0 0 0
228 1 0.188233 0.7868 0.7372 0 0 0
222 1 0.499117 0.982417 0.727 0 0 0
188 1 0.491683 0.113117 0.768867 0 0 0
67 1 0.179 0.150983 0.751017 0 0 0
341 1 0.46785 0.139533 0.749267 0 0 0
284 1 0.30675 0.285033 0.748167 0 0 0
316 1 0.249767 0.482417 0.75025 0 0 0
270 1 0.63175 0.8262 0.751133 0 0 0
176 1 0.66005 0.829817 0.75215 0 0 0
72 1 0.244583 0.1463 0.7938 0 0 0
211 1 0.810117 0.12915 0.789583 0 0 0
269 1 0.776033 0.343517 0.776867 0 0 0
370 1 0.475417 0.376283 0.776767 0 0 0
137 1 0.584933 0.3633 0.783617 0 0 0
171 1 0.403233 0.426133 0.78525 0 0 0
293 1 0.63645 0.47625 0.790567 0 0 0
57 1 0.984683 0.472633 0.771033 -1 0 0
142 1 0.522717 0.5849 0.77275 0 0 0
300 1 0.553667 0.601317 0.7904 0 0 0
345 1 0.575367 0.687117 0.775667 0 0 0
305 1 0.406183 0.73885 0.772783 0 0 0
283 1 0.604183 0.828583 0.773933 0 0 0
182 1 0.9054 0.8711 0.792933 0 0 0
308 1 0.6354 0.873733 0.7906 0 0 0
220 1 0.892583 0.912633 0.77475 0 0 0
212 1 0.274533 0.0364 0.817183 0 0 0
55 1 0.8864 0.120567 0.799217 0 0 0
210 1 0.53185 0.281567 0.79915 0 0 0
31 1 0.86885 0.330517 0.818383 0 0 0
20 1 0.2245 0.386233 0.8172 0 0 0
203 1 0.450433 0.55495 0.819517 0 0 0
200 1 0.395883 0.70455 0.809767 0 0 0
108 1 0.516967 0.710183 0.813767 0 0 0
290 1 0.0401 0.802217 0.8076 0 0 0
230 1 0.441217 0.109017 0.842167 0 0 0
148 1 0.0597667 0.130367 0.838267 0 0 0
48 1 0.212483 0.1636 0.84295 0 0 0
43 1 0.366733 0.197083 0.824317 0 0 0
152 1 0.921467 0.295933 0.835117 0 0 0
121 1 0.444883 0.482117 0.824283 0 0 0
168 1 0.821083 0.0821167 0.87015 0 0 0
9 1 0.217433 0.13055 0.84915 0 0 0
109 1 0.318067 0.18445 0.848483 0 0 0
103 1 0.362617 0.346067 0.857267 0 0 0
340 1 0.788883 0.401767 0.85885 0 0 0
5 1 0.2072 0.440267 0.865533 0 0 0
8 1 0.07095 0.473217 0.849917 0 0 0
215 1 0.521567 0.65685 0.864233 0 0 0
199 1 0.592033 0.6488 0.8611 0 0 0
265 1 0.561683 0.704883 0.8629 0 0 0
39 1 0.412867 0.979683 0.85595 0 0 0
256 1 0.5211 0.00521667 0.89245 0 0 0
254 1 0.441333 0.4288 0.877217 0 0 0
81 1 0.259183 0.498017 0.896583 0 0 0
139 1 0.214517 0.5806 0.884133 0 0 0
111 1 0.579 0.703117 0.8802 0 0 0
105 1 0.1839 0.750683 0.877383 0 0 0
68 1 0.215067 0.886667 0.8827 0 0 0
263 1 0.636367 0.0877167 0.900733 0 0 0
83 1 0.575317 0.140583 0.905833 0 0 0
325 1 0.6446 0.302483 0.902817 0 0 0
192 1 0.605783 0.711983 0.91095 0 0 0
151 1 0.253283 0.0323167 0.931917 0 0 0
82 1 0.68585 0.261533 0.9454 0 0 0
360 1 0.1755 0.684783 0.927383 0 0 0
6 1 0.392 0.669033 0.933683 0 0 0
86 1 0.110533 0.0854667 0.967083 0 0 0
52 1 0.43745 0.11 0.9676 0 0 0
90 1 0.54595 0.595783 0.968017 0 0 0
352 1 0.475 0.647 0.9554 0 0 0
364 1 0.68625 0.6559 0.956867 0 0 0
317 1 0.440983 0.731583 0.9631 0 0 0
394 1 0.866717 0.486667 0.997067 0 0 0
271 1 0.655067 0.886433 0.977733 0 0 0
ITEM: TIMESTEP
1000
ITEM: NUMBER OF ATOMS
400
ITEM: BOX BOUNDS pp pp pp
-3.0000000000000000e+01 3.0000000000000000e+01
-3.0000000000000000e+01 3.0000000000000000e+01
-3.0000000000000000e+01 3.0000000000000000e+01
ITEM: ATOMS id type xs ys zs ix iy iz
134 1 0.426699 0.0692459 0.987688 0 0 -1
33 1 0.582543 0.368919 0.988959 0 0 -1
229 1 0.829135 0.472759 0.114217 0 0 0
386 1 0.522839 0.605873 0.0225222 0 0 0
193 1 0.702317 0.701873 0.109182 0 0 0
262 1 0.630497 0.669258 0.975267 0 0 -1
183 1 0.196531 0.793733 0.184818 0 0 0
78 1 0.0931006 0.219489 0.0375053 0 0 0
216 1 0.647168 0.390922 0.0821543 0 0 0
46 1 0.549272 0.406718 0.0822591 0 0 0
165 1 0.848073 0.470308 0.0306695 0 0 0
140 1 0.429168 0.659079 0.107772 0 0 0
185 1 0.612692 0.813962 0.140759 0 0 0
388 1 0.378337 0.622986 0.101938 0 0 0
311 1 0.492553 0.770292 0.00083792 0 0 0
107 1 0.190199 0.614576 0.102154 0 0 0
38 1 0.409229 0.912201 0.106681 0 0 0
343 1 0.799715 0.251471 0.080693 0 0 0
30 1 0.594978 0.683433 0.100775 0 0 0
177 1 0.210716 0.76415 0.0304197 0 0 0
399 1 0.778696 0.941884 0.975852 0 -1 -1
213 1 0.692382 0.0793509 0.193379 0 0 0
268 1 0.257123 0.292608 0.110606 0 0 0
302 1 0.59395 0.473888 0.170489 0 0 0
353 1 0.648898 0.545896 0.999914 0 0 -1
21 1 0.207827 0.379931 0.13995 0 0 0
131 1 0.106611 0.650604 0.103339 0 0 0
23 1 0.703723 0.521747 0.180273 0 0 0
190 1 0.270199 0.595978 0.123369 0 0 0
273 1 0.670234 0.794016 0.13601 0 0 0
126 1 0.14277 0.0500403 0.01208 0 0 0
367 1 0.348511 0.426312 0.101725 0 0 0
87 1 0.873458 0.52947 0.173125 0 0 0
75 1 0.295836 0.469354 0.17933 0 0 0
106 1 0.334839 0.970597 0.141696 0 0 0
45 1 0.859094 0.918108 0.126062 0 0 0
226 1 0.58814 0.776888 0.165829 0 0 0
101 1 0.467898 0.0956395 0.181629 0 0 0
392 1 0.5067 0.412839 0.217972 0 0 0
218 1 0.586671 0.53621 0.228942 0 0 0
36 1 0.989861 0.0757468 0.282106 0 0 0
129 1 0.98255 0.219375 0.102205 0 0 0
208 1 0.198357 0.242474 0.238409 0 0 0
112 1 0.330096 0.281402 0.288491 0 0 0
314 1 0.66607 0.534668 0.289481 0 0 0
155 1 0.655423 0.776546 0.110998 0 0 0
13 1 0.112892 0.795383 0.105262 0 0 0
227 1 0.32951 0.828174 0.218258 0 0 0
123 1 0.382939 0.273598 0.126041 0 0 0
119 1 0.804121 0.479368 0.157308 0 0 0
329 1 0.835814 0.569499 0.215165 0 0 0
379 1 0.325142 0.639465 0.337223 0 0 0
17 1 0.981836 0.277928 0.16875 -1 0 0
328 1 0.00398279 0.426073 0.412812 0 0 0
54 1 0.705871 0.677461 0.249892 0 0 0
69 1 0.547544 0.599434 0.229584 0 0 0
366 1 0.441641 0.593649 0.285674 0 0 0
243 1 0.337792 0.516906 0.357297 0 0 0
16 1 0.231687 0.665351 0.280719 0 0 0
25 1 0.392652 0.902488 0.358885 0 0 0
397 1 0.0431805 0.201546 0.173336 1 0 0
330 1 0.464951 0.274458 0.200519 0 0 0
4 1 0.835363 0.17434 0.298194 0 0 0
178 1 0.411727 0.484642 0.331877 0 0 0
387 1 0.619825 0.5266 0.381281 0 0 0
234 1 0.396682 0.468039 0.29154 0 0 0
255 1 0.8496 0.670264 0.226933 0 0 0
153 1 0.173299 0.780081 0.347941 0 0 0
58 1 0.294801 0.713045 0.277152 0 0 0
371 1 0.656356 0.893326 0.329051 0 0 0
92 1 0.24024 0.828686 0.316408 0 0 0
235 1 0.341461 0.774327 0.224473 0 0 0
332 1 0.256588 0.92865 0.365659 0 0 0
166 1 0.83627 0.0227276 0.309555 0 0 0
296 1 0.933326 0.999317 0.325511 0 -1 0
247 1 0.519764 0.976126 0.219667 0 -1 0
24 1 0.854124 0.382923 0.23383 0 0 0
161 1 0.118107 0.681367 0.346533 0 0 0
99 1 0.722485 0.830502 0.332024 0 0 0
342 1 0.638067 0.89245 0.434863 0 0 0
326 1 0.940459 0.21249 0.414744 0 0 0
118 1 0.803147 0.20736 0.412204 0 0 0
244 1 1.00143 0.274791 0.381358 0 0 0
120 1 0.174933 0.555292 0.285955 0 0 0
100 1 0.487625 0.688355 0.411249 0 0 0
259 1 0.755611 0.765403 0.260557 0 0 0
362 1 0.666821 0.696883 0.370551 0 0 0
79 1 0.0200976 0.905154 0.30941 0 0 0
2 1 0.229807 0.993254 0.400912 0 -1 0
253 1 0.633761 0.0665433 0.330239 0 0 0
91 1 0.555926 0.174245 0.411746 0 0 0
334 1 0.343132 0.287301 0.376241 0 0 0
180 1 0.453691 0.285837 0.401933 0 0 0
160 1 0.345402 0.412572 0.381484 0 0 0
295 1 0.473025 0.25913 0.316886 0 0 0
7 1 0.944251 0.572594 0.385689 0 0 0
115 1 0.262028 0.588309 0.362547 0 0 0
22 1 0.348196 0.708101 0.417634 0 0 0
301 1 0.510342 0.738149 0.419504 0 0 0
304 1 0.069411 0.606557 0.386404 1 0 0
113 1 0.392616 0.95138 0.283484 0 0 0
64 1 0.880541 0.958635 0.377997 0 0 0
42 1 0.151343 0.193028 0.317649 0 0 0
358 1 0.828295 0.347098 0.472775 0 0 0
354 1 0.47384 0.321171 0.317125 0 0 0
223 1 0.38715 0.311998 0.325987 0 0 0
348 1 0.759409 0.462322 0.322445 0 0 0
205 1 0.405652 0.616103 0.44799 0 0 0
384 1 0.235407 0.47159 0.331579 0 0 0
261 1 0.927821 0.458634 0.464941 0 0 0
390 1 0.75889 0.560405 0.361667 0 0 0
306 1 0.722293 0.575323 0.241057 0 0 0
277 1 0.616804 0.663754 0.339681 0 0 0
266 1 0.719077 0.66613 0.416065 0 0 0
258 1 0.742759 0.789974 0.303546 0 0 0
207 1 0.371617 0.950621 0.458567 0 -1 0
50 1 0.235761 0.371644 0.354319 0 0 0
320 1 0.0671332 0.58506 0.409407 0 0 0
170 1 0.167232 0.65434 0.259759 0 0 0
198 1 0.372602 0.684077 0.48553 0 0 0
191 1 0.630961 0.699601 0.355978 0 0 0
186 1 0.307542 0.763395 0.446287 0 0 0
61 1 0.693488 0.879247 0.464604 0 0 0
318 1 0.809911 0.734641 0.342188 0 0 0
10 1 0.257741 0.815414 0.381817 0 0 0
150 1 0.450671 0.843365 0.428566 0 0 0
34 1 0.920385 0.784763 0.416625 0 0 0
11 1 0.103612 0.962903 0.455913 0 0 0
238 1 0.906903 0.0364443 0.419114 0 0 0
149 1 0.565167 0.113982 0.37937 0 0 0
85 1 0.2369 0.211199 0.367502 0 0 0
250 1 0.437104 0.194617 0.490555 0 0 0
321 1 0.629338 0.193732 0.346983 0 0 0
372 1 0.664527 0.423224 0.413554 0 0 0
159 1 0.393874 0.242976 0.523418 0 0 0
385 1 0.717377 0.508112 0.372775 0 0 0
375 1 0.611091 0.300011 0.41117 0 0 0
158 1 0.653009 0.420456 0.566973 0 0 0
206 1 0.0375291 0.52436 0.40083 0 0 0
351 1 0.340955 0.557784 0.397209 0 0 0
225 1 0.213711 0.589923 0.43263 0 0 0
209 1 0.614997 0.550197 0.57344 0 0 0
374 1 0.694746 0.643916 0.428598 0 0 0
136 1 0.470474 0.738627 0.461674 0 0 0
278 1 0.637329 0.808661 0.469741 0 0 0
275 1 0.0182317 0.636827 0.55879 0 0 0
289 1 0.205588 0.820014 0.409684 0 0 0
361 1 0.831713 0.882529 0.308793 0 0 0
276 1 0.624529 0.980412 0.57425 0 0 0
60 1 0.39443 0.0234246 0.359506 0 0 0
132 1 0.463052 0.0553192 0.38909 0 0 0
319 1 0.262785 0.311046 0.525125 0 0 0
395 1 0.570755 0.336018 0.519591 0 0 0
312 1 0.82877 0.513243 0.455561 0 0 0
324 1 0.631096 0.506935 0.459898 0 0 0
391 1 0.602723 0.562883 0.329859 0 0 0
242 1 0.829209 0.739442 0.466865 0 0 0
70 1 0.937198 0.715223 0.510655 0 0 0
292 1 0.75742 0.635471 0.466078 0 0 0
28 1 0.344614 0.632609 0.39357 0 0 0
56 1 0.14968 0.749702 0.447491 0 0 0
224 1 0.391063 0.708899 0.465747 0 0 0
40 1 0.337808 0.810957 0.41138 0 0 0
381 1 0.0870104 0.771875 0.509064 1 0 0
163 1 0.00391801 0.907175 0.51533 1 0 0
145 1 0.345535 0.0352347 0.25427 0 1 0
3 1 0.162993 0.940058 0.520419 0 0 0
344 1 0.723948 0.048277 0.421689 0 1 0
398 1 0.657989 0.122779 0.4316 0 1 0
93 1 0.998505 0.00725438 0.589121 -1 0 0
88 1 0.634523 0.0720028 0.462017 0 0 0
201 1 0.621633 0.151378 0.392916 0 0 0
173 1 0.141265 0.169593 0.414121 0 0 0
373 1 0.603319 0.20684 0.382172 0 0 0
89 1 0.361052 0.269354 0.480086 0 0 0
272 1 0.445103 0.216846 0.476001 0 0 0
350 1 0.367843 0.203671 0.518118 0 0 0
376 1 0.299031 0.371217 0.29974 0 0 0
368 1 0.564256 0.436105 0.45601 0 0 0
202 1 0.127571 0.386656 0.422382 0 0 0
102 1 0.490615 0.576563 0.494987 0 0 0
251 1 0.580575 0.454925 0.614658 0 0 0
154 1 0.185807 0.422792 0.408493 0 0 0
194 1 0.656067 0.667394 0.428354 0 0 0
110 1 0.160888 0.76829 0.463636 0 0 0
164 1 0.723363 0.647828 0.525002 0 0 0
315 1 0.691505 0.701863 0.370955 0 0 0
378 1 0.763938 0.916227 0.460396 0 0 0
84 1 0.505131 0.989738 0.52808 0 -1 0
377 1 0.660953 0.0330987 0.595624 0 0 0
279 1 0.213106 0.0938907 0.45063 0 0 0
252 1 0.754998 0.292486 0.534336 0 0 0
53 1 0.934942 0.296787 0.486065 0 0 0
80 1 0.218587 0.275702 0.4044 0 0 0
382 1 0.649016 0.345313 0.408643 0 0 0
369 1 0.603622 0.375248 0.635708 0 0 0
138 1 0.859114 0.494534 0.452702 0 0 0
122 1 0.423625 0.387658 0.542256 0 0 0
71 1 0.311525 0.518009 0.474912 0 0 0
167 1 0.540435 0.64066 0.339391 0 0 0
239 1 0.525044 0.733315 0.469501 0 0 0
294 1 0.568058 0.834142 0.495365 0 0 0
157 1 0.975579 0.909808 0.550945 -1 0 0
322 1 0.543594 0.892904 0.631423 0 0 0
240 1 0.591272 0.990402 0.490211 0 0 0
181 1 0.527258 0.905845 0.604267 0 0 0
51 1 0.154438 0.249987 0.481776 0 0 0
125 1 0.727543 0.319709 0.436681 0 0 0
47 1 0.876853 0.412387 0.562703 0 0 0
246 1 0.443788 0.385786 0.494734 0 0 0
127 1 0.513742 0.480237 0.554817 0 0 0
29 1 0.51189 0.484192 0.59374 0 0 0
130 1 0.0288546 0.567951 0.494089 1 0 0
133 1 0.420725 0.589739 0.651308 0 0 0
267 1 0.259195 0.683148 0.523299 0 0 0
393 1 0.967429 0.828581 0.559929 -1 0 0
184 1 0.734134 0.836862 0.632887 0 0 0
114 1 0.281291 0.131155 0.505934 0 0 0
338 1 0.571194 0.150475 0.52266 0 0 0
339 1 0.197864 0.297752 0.610758 0 0 0
116 1 0.330976 0.236676 0.552615 0 0 0
383 1 0.83836 0.340636 0.590699 0 0 0
260 1 0.44192 0.378653 0.604673 0 0 0
297 1 0.817067 0.400328 0.535947 0 0 0
63 1 0.348238 0.758186 0.508303 0 0 0
37 1 0.0710028 0.546839 0.384883 0 0 0
363 1 0.451245 0.51368 0.573306 0 0 0
389 1 0.737665 0.669064 0.634979 0 0 0
217 1 0.520757 0.767415 0.626239 0 0 0
95 1 0.111905 0.702336 0.526454 0 0 0
349 1 0.580336 0.725321 0.683435 0 0 0
73 1 0.515165 0.823505 0.566528 0 0 0
62 1 0.43314 0.757677 0.53078 0 0 0
323 1 0.753908 0.931429 0.504656 0 -1 0
59 1 0.641856 0.085083 0.718338 0 0 0
291 1 0.136843 0.216259 0.524341 0 0 0
172 1 0.0906459 0.393472 0.557666 0 0 0
280 1 0.756989 0.462316 0.648773 0 0 0
117 1 0.399627 0.436291 0.633293 0 0 0
174 1 0.444061 0.502782 0.66541 0 0 0
288 1 0.15589 0.564245 0.63578 0 0 0
231 1 0.290228 0.550125 0.614779 0 0 0
245 1 0.642067 0.645288 0.576342 0 0 0
187 1 0.280516 0.671292 0.673507 0 0 0
98 1 0.93253 0.634457 0.728492 0 0 0
365 1 0.548357 0.786665 0.477506 0 0 0
337 1 0.312999 0.025753 0.550923 0 1 0
236 1 0.277629 0.055889 0.699984 0 0 0
249 1 0.242718 0.246559 0.610726 0 0 0
214 1 0.989953 0.314667 0.649198 0 0 0
336 1 0.846685 0.394375 0.748838 0 0 0
128 1 0.142794 0.719252 0.465922 0 0 0
44 1 0.136969 0.757721 0.583446 0 0 0
18 1 0.189303 0.00893988 0.695687 0 1 0
1 1 0.894059 0.92497 0.580069 0 -1 0
35 1 0.350766 0.116098 0.628188 0 0 0
347 1 0.365653 0.23938 0.685538 0 0 0
298 1 0.667595 0.173599 0.685427 0 0 0
331 1 0.832522 0.16048 0.653633 0 0 0
74 1 0.302928 0.117696 0.739666 0 0 0
357 1 0.853338 0.354196 0.668484 0 0 0
355 1 0.702837 0.32748 0.611658 0 0 0
169 1 0.135745 0.368058 0.725056 0 0 0
241 1 0.743709 0.349837 0.62882 0 0 0
41 1 0.892256 0.45631 0.586493 0 0 0
282 1 0.228799 0.440281 0.585056 0 0 0
77 1 0.384118 0.439243 0.56635 0 0 0
204 1 0.64159 0.546574 0.661474 0 0 0
281 1 0.715081 0.761128 0.543144 0 0 0
175 1 0.838939 0.457263 0.700221 0 0 0
141 1 0.106947 0.63274 0.59431 0 0 0
179 1 0.624868 0.676215 0.657454 0 0 0
146 1 0.844917 0.694284 0.601917 0 0 0
307 1 0.654265 0.876361 0.619025 0 0 0
237 1 0.743696 0.725282 0.518906 0 0 0
400 1 0.581352 0.837427 0.675218 0 0 0
76 1 0.835033 0.766548 0.602063 0 0 0
313 1 0.841462 0.97529 0.539112 0 0 0
66 1 0.498973 0.951918 0.680882 0 0 0
380 1 0.728011 0.88991 0.602943 0 0 0
257 1 0.369982 0.125288 0.707184 0 1 0
144 1 0.0441005 0.372208 0.709782 0 0 0
97 1 0.635728 0.258328 0.672956 0 0 0
310 1 0.604928 0.323095 0.673091 0 0 0
197 1 0.207662 0.564992 0.686412 0 0 0
94 1 0.542057 0.531562 0.698109 0 0 0
32 1 0.60329 0.529877 0.683863 0 0 0
196 1 0.246429 0.608857 0.649136 0 0 0
219 1 0.369796 0.575458 0.655855 0 0 0
309 1 0.714873 0.731754 0.612789 0 0 0
299 1 0.930659 0.760312 0.516591 0 0 0
14 1 0.299163 0.870959 0.512664 0 0 0
232 1 0.838624 0.844349 0.671138 0 0 0
274 1 0.238242 0.869093 0.594716 0 0 0
189 1 0.642632 0.214686 0.790061 0 0 0
104 1 0.193142 0.10731 0.672778 0 0 0
96 1 0.630741 0.267405 0.649133 0 0 0
135 1 0.222902 0.156577 0.747349 0 0 0
221 1 0.996626 0.355169 0.715041 0 0 0
248 1 0.562585 0.564487 0.718245 0 0 0
287 1 0.187449 0.503429 0.718342 0 0 0
156 1 0.34191 0.668998 0.6493 0 0 0
286 1 0.924751 0.570565 0.678796 0 0 0
162 1 0.276623 0.668613 0.696877 0 0 0
396 1 0.631155 0.0472934 0.722918 0 0 0
335 1 0.707878 0.274707 0.803695 0 0 0
327 1 0.648063 0.279753 0.643184 0 0 0
12 1 0.415569 0.375539 0.743946 0 0 0
143 1 0.503143 0.545483 0.573469 0 0 0
124 1 0.497754 0.567364 0.591245 0 0 0
233 1 0.270088 0.64372 0.753765 0 0 0
19 1 0.0984068 0.688904 0.683803 0 0 0
333 1 0.619932 0.621765 0.776013 0 0 0
356 1 0.314509 0.905092 0.556703 0 0 0
27 1 0.403371 0.966288 0.630745 0 0 0
346 1 0.456679 0.0237254 0.621685 0 1 0
359 1 0.947707 0.272064 0.767144 0 0 0
303 1 0.436254 0.295656 0.795561 0 0 0
147 1 0.226495 0.36776 0.798255 0 0 0
49 1 0.519905 0.338333 0.747227 0 0 0
285 1 0.0645985 0.44599 0.614736 0 0 0
65 1 0.920849 0.468573 0.644757 -1 0 0
26 1 0.211587 0.661904 0.776851 0 0 0
264 1 0.333767 0.674538 0.846765 0 0 0
15 1 0.895048 0.696604 0.641106 0 0 0
195 1 0.30501 0.85906 0.746921 0 0 0
228 1 0.200469 0.865002 0.707631 0 0 0
222 1 0.523065 0.978351 0.812526 0 0 0
188 1 0.551902 0.032451 0.77526 0 0 0
67 1 0.207692 0.240933 0.769892 0 0 0
341 1 0.330335 0.078987 0.863751 0 0 0
284 1 0.294716 0.338449 0.72102 0 0 0
316 1 0.386657 0.375565 0.707347 0 0 0
270 1 0.703425 0.857248 0.784513 0 0 0
176 1 0.683392 0.856712 0.792233 0 0 0
72 1 0.207607 0.20739 0.77472 0 0 0
211 1 0.779726 0.0837216 0.908118 0 0 0
269 1 0.822082 0.328477 0.846035 0 0 0
370 1 0.67699 0.488988 0.852087 0 0 0
137 1 0.584425 0.426555 0.839101 0 0 0
171 1 0.531619 0.481749 0.84779 0 0 0
293 1 0.710899 0.418987 0.856451 0 0 0
57 1 0.0432961 0.36768 0.77546 0 0 0
142 1 0.478279 0.503452 0.791011 0 0 0
300 1 0.591062 0.642553 0.846047 0 0 0
345 1 0.469094 0.750395 0.789539 0 0 0
305 1 0.384731 0.717535 0.753003 0 0 0
283 1 0.559909 0.800356 0.766939 0 0 0
182 1 0.955714 0.799474 0.819765 0 0 0
308 1 0.665097 1.00179 0.820935 0 0 0
220 1 0.980321 0.903874 0.859234 0 0 0
212 1 0.223626 0.211182 0.862685 0 0 0
55 1 0.892486 0.135287 0.870385 0 0 0
210 1 0.527393 0.269944 0.934589 0 0 0
31 1 0.758315 0.411389 0.793096 0 0 0
20 1 0.255774 0.311975 0.760164 0 0 0
203 1 0.421848 0.634026 0.86844 0 0 0
200 1 0.4634 0.645534 0.907273 0 0 0
108 1 0.512246 0.712786 0.79603 0 0 0
290 1 0.899806 0.758983 0.839658 -1 0 0
230 1 0.553901 0.122643 0.882762 0 0 0
148 1 0.147138 0.170551 0.833792 0 0 0
48 1 0.152487 0.129861 0.83201 0 0 0
43 1 0.364309 0.0996316 0.788226 0 0 0
152 1 0.960136 0.273919 0.781638 0 0 0
121 1 0.329533 0.537232 0.723423 0 0 0
168 1 0.819518 0.0624148 0.769313 0 0 0
9 1 0.243025 0.135868 0.930107 0 0 0
109 1 0.273388 0.270184 0.920475 0 0 0
103 1 0.374638 0.363561 0.758354 0 0 0
340 1 0.782618 0.371433 0.936352 0 0 0
5 1 0.208976 0.408964 0.890127 0 0 0
8 1 0.0257785 0.351887 0.8483 0 0 0
215 1 0.599547 0.630155 0.833739 0 0 0
199 1 0.674474 0.619933 0.794031 0 0 0
265 1 0.664192 0.679663 0.913026 0 0 0
39 1 0.480332 0.0399383 0.943373 0 1 0