LAMMPS (29 Oct 2020)
###################### polyelectrolyte complexation ######################
clear

#Initialization
#------------------------------------
units				lj
dimension			3
atom_style			full
boundary			p p p

#Atom Definition
#-------------------------------------
read_data			data.complexation
Reading data file ...
  orthogonal box = (-80.000000 -80.000000 -80.000000) to (80.000000 80.000000 80.000000)
  1 by 1 by 1 MPI processor grid
  reading atoms ...
  80 atoms
  scanning bonds ...
  1 = max bonds/atom
  reading bonds ...
  79 bonds
Finding 1-2 1-3 1-4 neighbors ...
  special bond factors lj:    0.0      0.0      0.0     
  special bond factors coul:  0.0      0.0      0.0     
     2 = max # of 1-2 neighbors
     2 = max # of 1-3 neighbors
     4 = max # of 1-4 neighbors
     6 = max # of special neighbors
  special bonds CPU = 0.000 seconds
  read_data CPU = 0.002 seconds

#Force definition
#----------------------------------------------
#Bond definition
bond_style			harmonic
bond_coeff			1 5000 1
#Pair definition
special_bonds	lj 0 1 1
Finding 1-2 1-3 1-4 neighbors ...
  special bond factors lj:    0.0      1.0      1.0     
  special bond factors coul:  0.0      0.0      0.0     
     2 = max # of 1-2 neighbors
     2 = max # of 1-3 neighbors
     4 = max # of 1-4 neighbors
     6 = max # of special neighbors
  special bonds CPU = 0.000 seconds
pair_style		 lj/cut 1.12
pair_modify 		 shift yes
pair_coeff	1 1 1 1 1.12

#Timestep etc
#--------------------------------------------
timestep		1e-05
run_style		verlet
velocity		all	create	1	14

#Fix
#---------------------------------------
group polymers type 1
80 atoms in group polymers
fix 1 all nve
fix 2 all langevin 1	1	10	14
fix 3 polymers recenter INIT INIT INIT units box

#Dump
#------------------------------------------------
compute  1 all gyration
variable  myRg2 equal c_1
variable  i equal step
fix  mythermofile all print 5000 "$i ${myRg2}" file radius_of_gyration.dat screen no

thermo_style		 custom step temp press pe evdwl ecoul ebond ke etotal enthalpy
thermo 	5000
dump	3 all custom 5000 dump.lammpstrj id mol type xu yu zu
run		20000000
Neighbor list info ...
  update every 1 steps, delay 10 steps, check yes
  max neighbors/atom: 2000, page size: 100000
  master list distance cutoff = 1.42
  ghost atom cutoff = 1.42
  binsize = 0.71, bins = 226 226 226
  1 neighbor lists, perpetual/occasional/extra = 1 0 0
  (1) pair lj/cut, perpetual
      attributes: half, newton on
      pair build: half/bin/newton
      stencil: half/bin/3d/newton
      bin: standard
WARNING: Communication cutoff 1.4200000000000002 is shorter than a bond length based estimate of 1.8. This may lead to errors. (../comm.cpp:667)
Per MPI rank memory allocation (min/avg/max) = 54.71 | 54.71 | 54.71 Mbytes
Step Temp Press PotEng E_vdwl E_coul E_bond KinEng TotEng Enthalpy 
       0            1 1.9287109e-05            0            0            0            0      1.48125      1.48125      2.46875 
    5000   0.76269559 -0.00029727411   0.34967211            0            0   0.34967211    1.1297428     1.479415   -13.741019 
   10000   0.46382133 -0.00067461743   0.79968294            0            0   0.79968294   0.68703535    1.4867183   -33.053694 
   15000   0.69242474 -0.00034110454   0.47508234            0            0   0.47508234    1.0256541    1.5007365   -15.963816 
   20000   0.66634089 -0.0002677246   0.49084129            0            0   0.49084129   0.98701744    1.4778587   -12.229641 
   25000   0.55414612 -0.00050369651   0.65779048            0            0   0.65779048   0.82082894    1.4786194   -24.310642 
   30000   0.63510966 -0.00042797869   0.52260186            0            0   0.52260186   0.94075619    1.4633581   -20.449151 
   35000   0.79008942 -5.3959016e-05   0.33376472            0            0   0.33376472    1.1703199    1.5040847   -1.2586169 
   40000   0.75776215 -5.4963151e-05   0.37541901            0            0   0.37541901    1.1224352    1.4978542   -1.3162592 
   45000   0.73846863 -0.00035997235   0.39492872            0            0   0.39492872    1.0938567    1.4887854   -16.941799 
   50000   0.80076328 -0.0002202759   0.30030613            0            0   0.30030613    1.1861306    1.4864367   -9.7916893 
   55000   0.76967878 0.00012872025    0.3490872            0            0    0.3490872    1.1400867    1.4891739    8.0796505 
   60000   0.82608786 5.6992174e-06   0.27090947            0            0   0.27090947    1.2236426    1.4945521     1.786352 
   65000   0.72224418 -0.00032465506   0.44282729            0            0   0.44282729    1.0698242    1.5126515   -15.109688 
   70000   0.76731033 -0.0001107052   0.36062942            0            0   0.36062942    1.1365784    1.4972079   -4.1708983 
   75000   0.82327272 0.00014545612   0.28345212            0            0   0.28345212    1.2194727    1.5029248    8.9502781 
   80000   0.77565265 -3.577091e-05   0.35570598            0            0   0.35570598    1.1489355    1.5046415  -0.32682914 
   85000   0.76635678 -0.00022341868   0.38165566            0            0   0.38165566     1.135166    1.5168216   -9.9222148 
   90000   0.85151495 -6.9814094e-06   0.26800589            0            0   0.26800589    1.2613065    1.5293124    1.1718643 
   95000   0.77115133 0.00012799318   0.39903953            0            0   0.39903953    1.1422679    1.5413074     8.094558 
  100000   0.78950404 -9.110569e-05    0.3600305            0            0    0.3600305    1.1694529    1.5294834    -3.135128 
  105000    0.7353034 -0.00012879533   0.44168233            0            0   0.44168233    1.0891682    1.5308505   -5.0634706 
  110000   0.82239599 4.6060563e-05   0.32653694            0            0   0.32653694    1.2181741     1.544711    3.9030118 
  115000   0.85228706 9.4517475e-05   0.30106982            0            0   0.30106982    1.2624502      1.56352    6.4028147 
  120000   0.74677809 -0.00018020201   0.46639974            0            0   0.46639974     1.106165    1.5725648   -7.6537779 
  125000   0.87265904 -1.7870688e-05   0.28187612            0            0   0.28187612    1.2926262    1.5745023   0.65952309 
  130000   0.79714022 0.00012378483   0.40679247            0            0   0.40679247     1.180764    1.5875564    7.9253398 
  135000   0.83893746 -5.5226062e-05   0.33421375            0            0   0.33421375    1.2426761    1.5768899   -1.2506845 
  140000   0.85767516 -1.3506555e-05   0.31856851            0            0   0.31856851    1.2704313    1.5889998   0.89746421 
  145000   0.83778136 4.380097e-05   0.34822081            0            0   0.34822081    1.2409636    1.5891845    3.8317941 
  150000   0.81776263 4.2648993e-05   0.38514253            0            0   0.38514253    1.2113109    1.5964534    3.7800819 
  155000   0.82505758 -7.1389221e-05   0.38402351            0            0   0.38402351    1.2221165    1.6061401    -2.048988 
  160000   0.84269861 7.1767416e-05   0.37815825            0            0   0.37815825    1.2482473    1.6264056    5.3008973 
  165000   0.85510109 -0.00011730348   0.37378008            0            0   0.37378008    1.2666185    1.6403986   -4.3655394 
  170000   0.81984519 0.00013448884   0.41942826            0            0   0.41942826    1.2143957    1.6338239    8.5196527 
  175000    0.8320446 -0.00012099025   0.42232432            0            0   0.42232432    1.2324661    1.6547904   -4.5399105 
  180000   0.88579907 -1.1227131e-05   0.35228867            0            0   0.35228867    1.3120899    1.6643786    1.0895495 
  185000   0.80277895 0.0001465978   0.46380397            0            0   0.46380397    1.1891163    1.6529203    9.1587276 
  190000   0.77210482 -7.7594347e-05   0.50700256            0            0   0.50700256    1.1436803    1.6506828   -2.3221477 
  195000   0.89868901 -6.3432132e-05   0.32888937            0            0   0.32888937    1.3311831    1.6600725   -1.5876527 
  200000   0.88048837 0.00019125761   0.37147795            0            0   0.37147795    1.3042234    1.6757013    11.468091 
  205000   0.79303641 -0.00019442666   0.46652133            0            0   0.46652133    1.1746852    1.6412065   -8.3134383 
  210000   0.88733631 1.2517395e-05   0.33673691            0            0   0.33673691    1.3143669    1.6511038    2.2919944 
  215000   0.86985676 0.00016477181   0.36153951            0            0   0.36153951    1.2884753    1.6500148    10.086332 
  220000    0.8271215 -9.7929111e-05   0.40307709            0            0   0.40307709    1.2251737    1.6282508   -3.3857197 
  225000   0.87152392 -5.8030428e-05   0.35470482            0            0   0.35470482    1.2909448    1.6456496   -1.3255083 
  230000   0.80917708 5.774181e-05   0.43458669            0            0   0.43458669    1.1985935    1.6331802    4.5895609 
  235000   0.86458885 -1.5893664e-05   0.37737103            0            0   0.37737103    1.2806722    1.6580433   0.84428767 
  240000   0.88458227 -5.6630162e-05    0.3428062            0            0    0.3428062    1.3102875    1.6530937   -1.2463706 
  245000   0.82084211 8.5632355e-05   0.42279142            0            0   0.42279142    1.2158724    1.6386638    6.0230404 
  250000   0.77265719 -4.0691959e-05   0.47353946            0            0   0.47353946    1.1444985    1.6180379  -0.46539036 
  255000   0.81166521 -9.3572801e-05    0.4228095            0            0    0.4228095    1.2022791    1.6250886   -3.1658388 
  260000   0.77962792 4.1852176e-05   0.48938319            0            0   0.48938319    1.1548239    1.6442071    3.7870384 
  265000   0.85239968 7.1360324e-05   0.37907472            0            0   0.37907472     1.262617    1.6416917    5.2953404 
  270000   0.86304018 -0.00018498456   0.36739717            0            0   0.36739717    1.2783783    1.6457754   -7.8254339 
  275000   0.79944893 0.0001897423   0.46849211            0            0   0.46849211    1.1841837    1.6526758    11.367482 
  280000   0.80515762 -9.2254299e-05   0.45162104            0            0   0.45162104    1.1926397    1.6442608   -3.0791593 
  285000   0.83122028 -0.00011374533   0.39846315            0            0   0.39846315     1.231245    1.6297082   -4.1940528 
  290000   0.85848804 0.00022588994   0.36974248            0            0   0.36974248    1.2716354    1.6413779    13.206943 
  295000   0.85133931 -0.00016643412   0.40770619            0            0   0.40770619    1.2610464    1.6687526   -6.8526743 
  300000   0.92488729 -9.0255591e-05   0.30349038            0            0   0.30349038    1.3699893    1.6734797   -2.9476066 
  305000   0.84702594 0.0002738072   0.41392007            0            0   0.41392007    1.2546572    1.6685772    15.687506 
  310000   0.80181958 -0.00028861404   0.47421181            0            0   0.47421181    1.1876953    1.6619071   -13.115132 
  315000   0.79525273 0.00020436459   0.45815794            0            0   0.45815794    1.1779681     1.636126    12.099593 
  320000    0.8447741 -0.00017072867   0.38005522            0            0   0.38005522    1.2513216    1.6313769   -7.1099312 
  325000     0.869579 0.00010394491   0.35492786            0            0   0.35492786    1.2880639    1.6429917    6.9649712 
  330000    0.9114811 1.7631661e-05   0.31201198            0            0   0.31201198    1.3501314    1.6621434    2.5648844 
  335000   0.85618637 -0.00010320865   0.40872761            0            0   0.40872761    1.2682261    1.6769537   -3.6073294 
  340000   0.82904966 0.00015835585   0.47136055            0            0   0.47136055    1.2280298    1.6993904    9.8072097 
  345000   0.81507723 -0.00015000846   0.52810252            0            0   0.52810252    1.2073332    1.7354357   -5.9449976 
  350000   0.88743873 8.489699e-05   0.44118407            0            0   0.44118407    1.3145186    1.7557027    6.1024286 
  355000   0.90526847 -9.5283599e-06   0.38721209            0            0   0.38721209    1.3409289     1.728141     1.240289 
  360000     0.883746 -0.00014884832   0.42578975            0            0   0.42578975    1.3090488    1.7348385   -5.8861956 
  365000   0.85921201 0.00022675384   0.47165858            0            0   0.47165858    1.2727078    1.7443664    13.354163 
  370000   0.88273507 -0.00020680377   0.43851029            0            0   0.43851029    1.3075513    1.7460616   -8.8422912 
  375000    0.8195358 9.6442939e-06   0.51696698            0            0   0.51696698    1.2139374    1.7309044    2.2246922 
  380000   0.87396001 -5.0086135e-05   0.43040764            0            0   0.43040764    1.2945533    1.7249609  -0.83944922 
  385000   0.83889742 -1.0146774e-05   0.48148528            0            0   0.48148528    1.2426168    1.7241021    1.2045872 
  390000   0.85952217 0.00011940128   0.42857709            0            0   0.42857709    1.2731672    1.7017443    7.8150897 
  395000   0.90119858 -0.00016141427   0.34496689            0            0   0.34496689    1.3349004    1.6798673   -6.5845434 
  400000    0.8118899 0.0001065468   0.49105528            0            0   0.49105528    1.2026119    1.6936672    7.1488635 
  405000   0.85417762 -0.00014356105   0.44220272            0            0   0.44220272    1.2652506    1.7074533   -5.6428726 
  410000   0.92394251 7.1771491e-05   0.33505799            0            0   0.33505799    1.3685898    1.7036478    5.3783482 
  415000   0.82283288 -7.0257741e-05   0.45516299            0            0   0.45516299    1.2188212    1.6739842   -1.9232121 
  420000    0.8045225 2.0440758e-05   0.49530055            0            0   0.49530055    1.1916989    1.6869995    2.7335663 
  425000   0.82697753 8.7913077e-05   0.44025002            0            0   0.44025002    1.2249605    1.6652105      6.16636 
  430000   0.84945622 -8.5557682e-05   0.44148459            0            0   0.44148459     1.258257    1.6997416   -2.6808117 
  435000   0.87315465 -5.2234579e-05   0.38497313            0            0   0.38497313    1.2933603    1.6783335  -0.99607697 
  440000   0.91876975 9.0523011e-05   0.33362465            0            0   0.33362465    1.3609277    1.6945524    6.3293305 
  445000   0.86381967 -7.5515943e-05   0.40395437            0            0   0.40395437    1.2795329    1.6834873    -2.182929 
  450000   0.82237771 0.00013347149   0.45996239            0            0   0.45996239     1.218147    1.6781094    8.5118497 
  455000    0.8356109 -4.6726068e-05   0.43176328            0            0   0.43176328    1.2377487    1.6695119  -0.72286277 
  460000   0.85661959 -2.2722553e-07   0.38659613            0            0   0.38659613    1.2688678    1.6554639      1.64383 
  465000   0.81761802 4.5550631e-05   0.45179227            0            0   0.45179227    1.2110967     1.662889    3.9950813 
  470000   0.82902816 -0.00016813614   0.41983042            0            0   0.41983042     1.227998    1.6478284    -6.960742 
  475000   0.84784765 8.3581139e-05   0.41395517 2.3604794e-05            0   0.41393156    1.2558743    1.6698295    5.9491838 
  480000   0.84278095 5.0986358e-06   0.43253132 0.00023002327            0   0.43230129    1.2483693    1.6809006    1.9419508 
  485000   0.83951005 -0.00012602534   0.42024149 0.0021238405            0   0.41811764    1.2435243    1.6637657   -4.7887319 
  490000   0.80847653 8.3190587e-05   0.48239375 0.0031725318            0   0.47922121    1.1975559    1.6799496    5.9393077 
  495000   0.81799897 -0.00018463732   0.46555517 0.0076623887            0   0.45789278     1.211661    1.6772161   -7.7762144 
  500000   0.84723482 7.9547527e-05   0.41752804 0.0015435318            0   0.41598451    1.2549666    1.6724946     5.745328 
  505000   0.84140109 -7.1016571e-05   0.41708364 0.0004910037            0   0.41659263    1.2463254     1.663409   -1.9726394 
  510000   0.82901378 -1.9133851e-05   0.41399733 2.4577342e-05            0   0.41397275    1.2279767     1.641974   0.66232081 
  515000   0.85665573 -6.2248211e-05   0.35612361            0            0   0.35612361    1.2689213    1.6250449   -1.5620635 
  520000   0.80611743 0.00011187708   0.42837947 7.4705455e-05            0   0.42830476    1.1940614    1.6224409    7.3505473 
  525000   0.80309532 -0.00017417979   0.42639725 0.00042247588            0   0.42597478    1.1895849    1.6159822   -7.3020231 
  530000   0.83680142 0.0002122709   0.34880291 0.00058953938            0   0.34821337    1.2395121     1.588315    12.456585 
  535000   0.88106507 -0.00011082815   0.28125794 0.00059213827            0    0.2806658    1.3050776    1.5863356   -4.0880658 
  540000   0.86786646 -3.169745e-06   0.31300599 0.00013491774            0   0.31287107    1.2855272    1.5985332    1.4362422 
  545000   0.81248586 3.3916739e-05   0.40370132            0            0   0.40370132    1.2034947     1.607196     3.343733 
  550000   0.77332682 -0.00018228991   0.46417965            0            0   0.46417965    1.1454904      1.60967   -7.7235732 
  555000    0.8575743 8.7873634e-05   0.33535832 3.0591442e-06            0   0.33535526    1.2702819    1.6056403    6.1047703 
  560000   0.85848841 7.2471877e-05   0.36246615 0.0015665468            0    0.3608996     1.271636    1.6341021    5.3446622 
  565000    0.7833974 2.0800351e-05   0.48796476 0.0040005711            0   0.48396419    1.1604074    1.6483722    2.7133501 
  570000   0.86192307 6.3831448e-05   0.37544231 0.0045355895            0   0.37090672    1.2767235    1.6521659     4.920336 
  575000   0.84909933 7.6402075e-06   0.40149068 0.00034915147            0   0.40114152    1.2577284    1.6592191    2.0503977 
  580000   0.83268777 -0.0001858955   0.44488383            0            0   0.44488383    1.2334188    1.6783026   -7.8395471 
  585000   0.82169731 0.00015118672   0.46374254            0            0   0.46374254    1.2171391    1.6808817    9.4216416 
  590000   0.86997072 -1.1070721e-06   0.41439319            0            0   0.41439319    1.2886441    1.7030373    1.6463552 
  595000   0.88341506 -8.9789025e-05   0.40737257 5.3295877e-06            0   0.40736724    1.3085586    1.7159311   -2.8812669 
  600000   0.82437068 3.7814849e-05   0.49230376 0.00066119388            0   0.49164257    1.2210991    1.7134028    3.6495231 
  605000   0.93472194 4.6642215e-05   0.34738806 0.0016881306            0   0.34569993    1.3845569    1.7319449    4.1200263 
  610000    0.8627786 -3.6022995e-05   0.44357461 0.0013177325            0   0.44225687    1.2779908    1.7215654  -0.12281194 
  615000   0.96875176 9.5984531e-05   0.30849105 0.00076831013            0   0.30772274    1.4349635    1.7434546    6.6578626 
  620000   0.80497645 6.0417633e-05   0.53093404 5.132421e-05            0   0.53088272    1.1923714    1.7233054    4.8166882 
  625000   0.86007131 0.00011648241   0.43079748            0            0   0.43079748    1.2739806    1.7047781    7.6686773 
  630000   0.86142544 -6.7844402e-05   0.43400591 5.7852843e-05            0   0.43394806    1.2759864    1.7099923   -1.7636411 
  635000   0.92633262 1.8239914e-05   0.30432785 0.00019241895            0   0.30413543    1.3721302     1.676458    2.6103417 
  640000   0.86933349 -4.4095393e-05   0.41736708 0.0028625277            0   0.41450455    1.2877002    1.7050673  -0.55261684 
  645000   0.80524127 4.8588418e-05   0.48065373 0.00081810084            0   0.47983563    1.1927636    1.6734174    4.1611443 
  650000   0.83576357 -0.00011464158   0.43282143 0.0089343631            0   0.42388707    1.2379748    1.6707962   -4.1988529 
  655000   0.91976375 4.3128323e-05    0.3182015  0.010614708            0   0.30758679    1.3624001    1.6806016    3.8887717 
  660000   0.76933845 -0.00017253136   0.55892591 0.0068068158            0   0.55211909    1.1395826    1.6985085   -7.1350969 
  665000   0.83504409 0.00011821239   0.45355701            0            0   0.45355701    1.2369091    1.6904661    7.7429404 
  670000   0.88048372 2.4190153e-05   0.37699195            0            0   0.37699195    1.3042165    1.6812085    2.9197443 
  675000   0.83994844 0.00012069109   0.43911136            0            0   0.43911136    1.2441736     1.683285    7.8626689 
  680000   0.81839536 -5.6456371e-05   0.49650937            0            0   0.49650937    1.2122481    1.7087575   -1.1818087 
  685000   0.85349347 8.2551482e-05   0.42995168            0            0   0.42995168    1.2642372    1.6941889    5.9208248 
  690000   0.88969028 2.7566849e-05   0.38988529 0.00019650763            0   0.38968879    1.3178537     1.707739    3.1191617 
  695000   0.89392768 3.9401836e-05   0.40503143 0.0031994407            0   0.40183199    1.3241304    1.7291618    3.7465358 
  700000   0.84563876 -2.1851758e-05   0.47432876 0.0063431031            0   0.46798566    1.2526024    1.7269312   0.60812117 
  705000   0.86395576 9.6457316e-05   0.47242779 0.0025727687            0   0.46985502    1.2797345    1.7521623    6.6907769 
  710000   0.88838242 3.7797725e-05   0.43665483 0.0014537484            0   0.43520109    1.3159165    1.7525713    3.6878148 
  715000   0.88681898 -0.00022705137    0.4623124 0.0078906195            0   0.45442178    1.3136006     1.775913   -9.8491172 
  720000   0.93558561 8.6472932e-05   0.40298555  0.011140402            0   0.39184514    1.3858362    1.7888217    6.2162358 
  725000   0.91587613 0.00019740656   0.42200079 0.0076754072            0   0.41432538    1.3566415    1.7786423    11.885858 
  730000   0.89871873 -0.00017822055   0.45985713 0.00068571413            0   0.45917142    1.3312271    1.7910842   -7.3338077 
  735000   0.87702197 8.4933159e-05   0.46424151 0.0012104974            0   0.46303101    1.2990888    1.7633303     6.111908 
  740000   0.94627313 1.6177058e-05   0.34151936 0.0087925644            0   0.33272679    1.4016671    1.7431864    2.5714518 
  745000   0.84799787 5.4586142e-05   0.47299116 0.0074262746            0   0.46556488    1.2560968     1.729088    4.5238985 
  750000   0.91277993 9.8983331e-05   0.39125901 0.00076454268            0   0.39049447    1.3520553    1.7433143    6.8112609 
  755000   0.89782173 -0.00012104474   0.43463358            0            0   0.43463358    1.3298984     1.764532   -4.4329588 
  760000   0.88015123 -0.00014217819   0.44591418 6.6188394e-05            0   0.44584799     1.303724    1.7496382   -5.5298854 
  765000   0.88938795 5.5627548e-05   0.42897591 0.0014604884            0   0.42751542    1.3174059    1.7463818    4.5945123 
  770000   0.87275791 -4.9807823e-05   0.43424725 0.0031050552            0    0.4311422    1.2927726    1.7270199  -0.82314065 
  775000   0.91686973 0.00011992852   0.38214727 0.0011435614            0   0.38100371    1.3581133    1.7402606    7.8806007 
  780000    0.8619527 0.00015820122   0.46939046 0.00095122735            0   0.46843924    1.2767674    1.7461579    9.8460602 
  785000   0.87571917 -0.0001083617   0.45820437 0.0020533368            0   0.45615103     1.297159    1.7553634   -3.7927558 
  790000   0.90057325 0.00015906423   0.42577076 0.0021428117            0   0.42362795    1.3339741    1.7597449    9.9038335 
  795000   0.87798843 1.3877662e-05   0.45042672  0.014347128            0   0.43607959    1.3005204    1.7509471    2.4614834 
  800000   0.91347633 0.00014196247   0.37164508  0.020132767            0   0.35151231    1.3530868    1.7247319    8.9932104 
  805000   0.77172116 0.00015284046   0.56693774 0.0030261154            0   0.56391162     1.143112    1.7100497    9.5354811 
  810000   0.81408518 -0.00012187347   0.54492903            0            0   0.54492903    1.2058637    1.7507927   -4.4891289 
  815000   0.89977749 4.3535484e-05   0.41215554 0.00010434488            0   0.41205119    1.3327954    1.7449509    3.9739677 
  820000   0.94749432 8.9064658e-05   0.36633458 0.0011016211            0   0.36523296     1.403476    1.7698105     6.329921 
  825000   0.97821771 -5.6795606e-05   0.32575364 0.0031013015            0   0.32265234     1.448985    1.7747386   -1.1331964 
  830000   0.89678222  9.19335e-05   0.45666879 0.0039419736            0   0.45272681    1.3283587    1.7850275    6.4920227 
  835000   0.82674771 -0.00018148014   0.55386892 0.0018315081            0   0.55203741      1.22462     1.778489   -7.5132941 
  840000   0.85858942 0.00018151713   0.47789461 0.0057798234            0   0.47211479    1.2717856    1.7496802    11.043357 
  845000   0.87647536 -0.00018081924   0.44427015  0.030224772            0   0.41404538    1.2982791    1.7425493   -7.5153958 
  850000   0.94020804 -5.3596786e-05   0.37478372  0.010119241            0   0.36466448    1.3926832    1.7674669  -0.97668855 
  855000   0.94846588 0.00013385336   0.33781652  0.022898783            0   0.31491773    1.4049151    1.7427316    8.5960235 
  860000   0.92333917 -5.9768616e-05   0.40011876  0.022035429            0   0.37808333    1.3676961    1.7678149   -1.2923382 
  865000   0.85556926 0.00010046126   0.49816264 0.00052766943            0   0.49763497     1.267312    1.7654746    6.9090914 
  870000   0.82684588 -0.00023587206   0.57134368 6.200242e-05            0   0.57128167    1.2247655    1.7961091    -10.28054 
  875000   0.92324669 0.00021354956   0.43167075 5.9979116e-05            0   0.43161077    1.3675592    1.7992299    12.732967 
  880000   0.97898338 -9.8297653e-05   0.35052399 0.00067853572            0   0.34984545    1.4501191    1.8006431   -3.2321967 
  885000   0.94439614 3.9317893e-05   0.38532983 0.0025352232            0   0.38279461    1.3988868    1.7842166    3.7972927 
  890000   0.94551622 9.9524493e-05   0.37857449  0.015833493            0     0.362741    1.4005459    1.7791204    6.8747744 
  895000   0.88846204 -0.00013115061   0.47664005  0.027555903            0   0.44908414    1.3160344    1.7926744   -4.9222368 
  900000   0.87684125 1.9437077e-05   0.50156502 0.0090259416            0   0.49253907    1.2988211    1.8003861    2.7955645 
  905000     0.888142 -3.1501671e-05    0.4732887 0.00051247508            0   0.47277622    1.3155603     1.788849    0.1759635 
  910000   0.90249733 0.00010433046   0.45965992 7.0059779e-05            0   0.45958986    1.3368242    1.7964841    7.1382036 
  915000   0.90186007 -0.00018321386    0.4407678 3.3682816e-05            0   0.44073411    1.3358802     1.776648   -7.6039014 
  920000    0.9647401 6.970435e-05   0.36214841 3.8225521e-05            0   0.36211018    1.4290213    1.7911697    5.3600324 
  925000   0.95388337 -3.2295365e-05   0.37939331 8.4328179e-05            0   0.37930898    1.4129397    1.7923331   0.13881037 
  930000   0.96479707 -6.8904895e-05   0.36820266 0.0014116718            0   0.36679099    1.4291057    1.7973083   -1.7306223 
  935000   0.95044178 4.2749592e-05   0.39642319 0.0018432567            0   0.39457993    1.4078419    1.8042651    3.9930442 
  940000   0.91350928 -0.00014263347   0.44192312 0.0013037747            0   0.44061934    1.3531356    1.7950587   -5.5077749 
  945000   0.96023083 7.1832194e-05   0.33671809 0.0041480835            0   0.33257001    1.4223419      1.75906    5.4368684 
  950000   0.89085027 5.4344213e-05   0.43529429 0.0079266671            0   0.42736763     1.319572    1.7548663      4.53729 
  955000   0.87385193 -4.8602746e-05   0.44331521 0.0014435354            0   0.44187167    1.2943932    1.7377084  -0.75075223 
  960000   0.88326066 -5.6827388e-05   0.42257977            0            0   0.42257977    1.3083298    1.7309096   -1.1786526 
  965000   0.90693309 1.7966129e-05   0.41830191            0            0   0.41830191    1.3433946    1.7616966    2.6815624 
  970000   0.84387491 -0.00019964642   0.49660729            0            0   0.49660729    1.2499897     1.746597   -8.4752999 
  975000   0.97073581 0.00016202204   0.33079001            0            0   0.33079001    1.4379024    1.7686924    10.064221 
  980000   0.85291773 -4.2664815e-05   0.50793556            0            0   0.50793556    1.2633844    1.7713199   -0.4131186 
  985000   0.88968137 1.7095763e-05   0.49525011            0            0   0.49525011    1.3178405    1.8130906    2.6883937 
  990000     0.920706 -6.6343612e-05   0.42443104 5.6914547e-05            0   0.42437412    1.3637958    1.7882268   -1.6085661 
  995000   0.91028158 5.3687536e-05   0.42345385 0.00070858822            0   0.42274526    1.3483546    1.7718084    4.5206103 
 1000000   0.87427916 -0.00019185584   0.44034135 0.00090274554            0   0.43943861     1.295026    1.7353674   -8.0876515 
 1005000   0.89866509 1.3086976e-05   0.41916803 0.00021545199            0   0.41895258    1.3311477    1.7503157    2.4203689 
 1010000   0.89127114 1.0310951e-05    0.4086467 0.00080249887            0    0.4078442    1.3201954    1.7288421    2.2567628 
 1015000   0.82056538 -9.768631e-05   0.47369799 0.0033124538            0   0.47038554    1.2154625    1.6891605   -3.3123786 
 1020000   0.87224312 9.2002988e-05   0.39249553 0.0066434528            0   0.38585207    1.2920101    1.6845056    6.3950586 
 1025000   0.84333046 -4.069388e-05   0.42874246 0.0057777175            0   0.42296475    1.2491833    1.6779257  -0.40560094 
 1030000   0.77884363 5.1265264e-05   0.48630903 0.0085873574            0   0.47772168    1.1536621    1.6399712    4.2647527 
 1035000   0.83324191 -0.00019549559   0.42277585   0.01030779            0   0.41246806    1.2342396    1.6570154   -8.3523587 
 1040000    0.8902947 0.00012366742   0.33528741 0.0038982506            0   0.33138916     1.318749    1.6540364    7.9858081 
 1045000   0.83364901 -4.5650533e-05   0.39294938 0.0034596916            0   0.38948969    1.2348426     1.627792  -0.70951532 
 1050000   0.84402609 9.6280004e-05   0.40405165 0.0029099004            0   0.40114174    1.2502136    1.6542653    6.5838015 
 1055000   0.87544866 0.00012018935   0.36971892 0.0014182495            0   0.36830067    1.2967583    1.6664772    7.8201722 
 1060000    0.8234435 -5.2609073e-05   0.46410732 0.0048582789            0   0.45924904    1.2197257     1.683833   -1.0097515 
 1065000   0.83297282 0.00024327286   0.43619872 0.0065779938            0   0.42962073     1.233841    1.6700397     14.12561 
 1070000   0.88919585 -3.8159288e-05    0.3851047 0.0050615522            0   0.38004315    1.3171213     1.702226  -0.25152951 
 1075000   0.87200395 -6.0297342e-05   0.41114022  0.011390435            0   0.39974979    1.2916559    1.7027961   -1.3844278 
 1080000   0.85637324 -0.00016733167   0.41102008  0.012059802            0   0.39896028    1.2685029    1.6795229   -6.8878587 
 1085000   0.80736605 0.00011145032   0.49757679   0.02486175            0   0.47271504     1.195911    1.6934877     7.399744 
 1090000   0.89806237 -3.6158411e-05   0.36996615  0.012806952            0    0.3571592    1.3302549     1.700221  -0.15108962 
 1095000   0.91984484 1.5820257e-05   0.35723055 0.0035766045            0   0.35365394    1.3625202    1.7197507    2.5297479 
 1100000   0.92215081 -3.5062781e-06   0.35275827 0.0041547561            0   0.34860351    1.3659359    1.7186942    1.5391727 
 1105000     0.894682 -4.1127876e-05   0.39911727 0.0092376994            0   0.38987957    1.3252477     1.724365  -0.38138226 
 1110000   0.85444082 -0.00012418798   0.45300787  0.020542203            0   0.43246566    1.2656405    1.7186483   -4.6397763 
 1115000   0.84348427 -0.00011305955   0.44441161   0.01483622            0   0.42957539    1.2494111    1.6938227   -4.0948261 
 1120000   0.85355978 4.2494739e-05   0.44533136 0.0084004562            0    0.4369309    1.2643354    1.7096668    3.8853974 
 1125000   0.88739442 0.00016344271    0.3857537 0.0030758054            0    0.3826779     1.314453    1.7002067    10.068473 
 1130000   0.86902742 -7.6385277e-06   0.44387145  0.008527533            0   0.43534392    1.2872469    1.7311183    1.3400257 
 1135000   0.85359289 0.00018946068   0.50277521   0.01327942            0   0.48949579    1.2643845    1.7671597    11.467547 
 1140000   0.89794526 3.0246074e-06   0.45787007 0.0073570148            0   0.45051305    1.3300814    1.7879515    1.9428114 
 1145000   0.96024341 0.00010649802   0.35815621 0.0091242889            0   0.34903192    1.4223605    1.7805168    7.2332156 
 1150000   0.92987239 5.8254383e-05   0.41094985 0.0095108061            0   0.40143904    1.3773735    1.7883233    4.7709477 
 1155000   0.95612127 -7.9042958e-05   0.37062269 0.0074944108            0   0.36312828    1.4162546    1.7868773   -2.2601222 
 1160000    0.9722262 6.8136209e-05   0.36895163 0.00067030635            0   0.36828132    1.4401101    1.8090617    5.2976356 
 1165000   0.90508341 -8.0598971e-05    0.4677647 0.0018259901            0   0.46593871    1.3406548    1.8084195   -2.3182478 
 1170000    0.9569997 5.0496584e-05   0.40771762 0.0045056506            0   0.40321197    1.4175558    1.8252734    4.4106985 
 1175000   0.91666201 -4.5014212e-05   0.48209533 0.0072988769            0   0.47479645    1.3578056    1.8399009  -0.46482675 
 1180000   0.95617656 -0.00011870208   0.43820496 0.0043883997            0   0.43381656    1.4163365    1.8545415   -4.2230048 
 1185000   0.94242006 9.2541858e-05    0.4530396 0.0074149358            0   0.44562467    1.3959597    1.8489993    6.5871425 
 1190000   0.96022944 -2.1473132e-05    0.4227129  0.007915991            0   0.41479691    1.4223399    1.8450528   0.74562841 
 1195000   0.97451594 -1.1913067e-05   0.39603845  0.014148853            0   0.38188959    1.4435017    1.8395402    1.2295911 
 1200000   0.99417774 0.00013055246   0.38380331  0.025428329            0   0.35837499    1.4726258    1.8564291    8.5407152 
 1205000   0.96140181 0.00010030922   0.42943926  0.014531363            0    0.4149079    1.4240764    1.8535157    6.9893476 
 1210000   0.93598608 -0.0001513973     0.455361 0.0061713336            0   0.44918967    1.3864294    1.8417904   -5.9097512 
 1215000   0.99178455 -9.1362938e-05   0.41234862 0.0086858034            0   0.40366282    1.4690809    1.8814295   -2.7963529 
 1220000    1.0351243 0.00013958061   0.33720483  0.012394821            0   0.32481001    1.5332779    1.8704827    9.0170097 
 1225000   0.92551795 7.9105265e-05   0.47000588 0.0049870369            0   0.46501884    1.3709235    1.8409293    5.8911189 
 1230000   0.94470696 -2.9699608e-06   0.41664553  0.002916683            0   0.41372885    1.3993472    1.8159927    1.6639307 
 1235000   0.97271663 -4.6940044e-05   0.38911447  0.010579618            0   0.37853485    1.4408365     1.829951  -0.57337928 
 1240000    0.9882955 1.7207499e-05   0.38940678  0.012417792            0   0.37698899    1.4639127    1.8533195    2.7343435 
 1245000   0.92508932 0.00016267259    0.4650459  0.030305637            0   0.43474027    1.3702886    1.8353345    10.164171 
 1250000   0.92681517 9.2305608e-05   0.42378827  0.054476865            0    0.3693114     1.372845    1.7966332    6.5226804 
 1255000   0.89806208 -8.8937254e-05   0.44394919  0.019083156            0   0.42486603    1.3302545    1.7742036   -2.7793837 
 1260000   0.88550693 -6.6522737e-05   0.44885732  0.018347684            0   0.43050963    1.3116571    1.7605145   -1.6454497 
 1265000   0.79883456 -6.100581e-05   0.56366488  0.017802885            0   0.54586199    1.1832737    1.7469386   -1.3765589 
 1270000   0.85074231 -6.1040907e-05   0.48027675 0.0075758442            0    0.4727009     1.260162    1.7404388   -1.3848557 
 1275000   0.90188636 -4.8263631e-05   0.43372895   0.01643635            0    0.4172926    1.3359192    1.7696481  -0.70144978 
 1280000   0.96403247 2.078505e-05   0.35563725  0.011886458            0   0.34375079    1.4279731    1.7836103    2.8478049 
 1285000   0.96019088 5.1193088e-05   0.36638921 0.0049775843            0   0.36141163    1.4222827     1.788672     4.409758 
 1290000   0.94246757 0.0001070692    0.3734331  0.018467358            0   0.35496574    1.3960301    1.7694632    7.2514064 
 1295000   0.90621644 -9.437189e-06   0.45243722  0.020208464            0   0.43222876    1.3423331    1.7947703    1.3115862 
 1300000   0.93814703 -8.8558273e-05   0.41643817 0.0063878139            0   0.41005036    1.3896303    1.8060685   -2.7281151 
 1305000   0.95591162 -2.6705394e-05    0.4063378  0.018050733            0   0.38828707    1.4159441    1.8222819   0.45496573 
 1310000    1.0326678 6.0290999e-05   0.26434609 0.0087705547            0   0.25557554    1.5296392    1.7939853    4.8808844 
 1315000   0.84033602 1.8735663e-05   0.53018376  0.011915235            0   0.51826853    1.2447477    1.7749315    2.7341974 
 1320000   0.87107322 -1.1374814e-05   0.47787325  0.027492967            0   0.45038029    1.2902772    1.7681505      1.18576 
 1325000   0.91613034 -9.2574178e-05   0.42149525  0.048033292            0   0.37346196    1.3570181    1.7785133   -2.9612846 
 1330000   0.94320575 3.4444409e-05   0.40731934  0.021665893            0   0.38565344    1.3971235    1.8044428    3.5679966 
 1335000   0.85452181 0.00020157593   0.50556871  0.005807551            0   0.49976116    1.2657604    1.7713291    12.092017 
 1340000   0.92206763 0.00011030256   0.39919409 0.0019907542            0   0.39720333    1.3658127    1.7650068    7.4124978 
 1345000   0.88504147 -6.2552135e-05   0.45715417 0.00064779483            0   0.45650637    1.3109677    1.7681218   -1.4345475 
 1350000   0.91658891 -7.1493317e-05   0.39745326 5.5148432e-05            0   0.39739811    1.3576973    1.7551506   -1.9053072 
 1355000   0.92455722 1.4437395e-05   0.38157001 1.7041553e-05            0   0.38155297    1.3695004    1.7510704     2.490265 
 1360000   0.89732597 -1.9320315e-05   0.43810259 0.00014270176            0   0.43795988    1.3291641    1.7672667   0.77806654 
 1365000   0.85142723 -5.6645357e-05   0.52504237 0.00028953184            0   0.52475284    1.2611766    1.7862189   -1.1140233 
 1370000   0.93460075 6.2518406e-05   0.39969882 0.0013855324            0   0.39831329    1.3843774    1.7840762    4.9850186 
 1375000   0.93250936 2.3582615e-05   0.40212674  0.010922454            0   0.39120429    1.3812795    1.7834062    2.9908361 
 1380000   0.86486473 -1.7989128e-05   0.47322479  0.017280741            0   0.45594405    1.2810809    1.7543057    0.8332623 
 1385000   0.87591684 0.00016232794    0.4409067 0.0075525301            0   0.43335417    1.2974518    1.7383585    10.049549 
 1390000   0.89341878 0.00014553614   0.41765245  0.013353612            0   0.40429884    1.3233766     1.741029    9.1924794 
 1395000   0.89191051 -0.00010099657    0.4365851  0.051075379            0   0.38550972    1.3211424    1.7577276   -3.4132968 
 1400000   0.89813205 -0.00015292484   0.42971328  0.060490768            0   0.36922251    1.3303581    1.7600714   -6.0696806 
 1405000   0.88822924 0.00011905202   0.42809545   0.02307911            0   0.40501634    1.3156896     1.743785    7.8392483 
 1410000   0.86314323 8.7584235e-05   0.43898184 0.0031182591            0   0.43586358    1.2785309    1.7175128    6.2018256 
 1415000   0.92667349 5.4683723e-05   0.36164439 0.0086628375            0   0.35298156    1.3726351    1.7342795    4.5340861 
 1420000   0.88269136 -2.006021e-05   0.40703615  0.013226863            0   0.39380929    1.3074866    1.7145227   0.68743998 
 1425000   0.81372958 -6.6652295e-05     0.513484  0.039987635            0   0.47349636    1.2053369    1.7188209   -1.6937766 
 1430000    0.8071305 2.420304e-05   0.51342171   0.02842929            0   0.48499242     1.195562    1.7089838    2.9481794 
 1435000   0.89951578 -6.6961039e-05   0.38387201  0.011929176            0   0.37194284    1.3324077    1.7162798   -1.7121254 
 1440000   0.88039006 -2.9970093e-05   0.42687767  0.010920197            0   0.41595747    1.3040778    1.7309555   0.19648667 
 1445000   0.86771539 2.8169237e-05   0.45698815  0.014658065            0   0.44233008    1.2853034    1.7422916    3.1845565 
 1450000   0.92445708 2.8514837e-05   0.39636426  0.027210814            0   0.36915345     1.369352    1.7657163     3.225676 
 1455000   0.94052264 -3.6540254e-05   0.36310801  0.010116154            0   0.35299185    1.3931492    1.7562572  -0.11460385 
 1460000   0.91603634 6.3737872e-05   0.40322243  0.002803617            0   0.40041882    1.3568788    1.7601013    5.0234803 
 1465000   0.88659483 0.00013578874   0.42956441 0.0010967002            0   0.42846771    1.3132686     1.742833    8.6952165 
 1470000   0.89709363 -5.2908079e-05   0.41971991 0.00028303416            0   0.41943688    1.3288199    1.7485399  -0.96035378 
 1475000   0.88590324 3.7955535e-05   0.43977247 0.0045115263            0   0.43526094    1.3122442    1.7520166      3.69534 
 1480000   0.89611315 -3.2839361e-05   0.41317481  0.012281035            0   0.40089378    1.3273676    1.7405424  0.059167142 
 1485000   0.88081798 -7.1195927e-05   0.46522389 0.0070163326            0   0.45820756    1.3047116    1.7699355   -1.8752959 
 1490000   0.91572229 0.00011048207   0.41001152  0.013810286            0   0.39620124    1.3564136    1.7664252    7.4231069 
 1495000   0.83901141 6.2610682e-05   0.52385943  0.016897634            0   0.50696179    1.2427856    1.7666451     4.972312 
 1500000    0.8841896 -8.2044136e-05   0.45001367  0.010666905            0   0.43934676    1.3097058    1.7597195   -2.4409402 
 1505000   0.80662213 -1.4700149e-05   0.53544346  0.016167039            0   0.51927642     1.194809    1.7302525   0.97760485 
 1510000   0.87338649 8.4190078e-05   0.44374752  0.010213413            0    0.4335341    1.2937037    1.7374513    6.0479833 
 1515000   0.90061088 -9.2716417e-06   0.40523636 0.0042927464            0   0.40094361    1.3340299    1.7392662    1.2645582 
 1520000   0.87827219 -2.5259648e-05   0.45921402 0.0038274523            0   0.45538656    1.3009407    1.7601547   0.46686073 
 1525000   0.90114198 5.2097091e-05   0.42723905  0.005850411            0   0.42138863    1.3348166    1.7620556    4.4294267 
 1530000   0.95869651 4.5636808e-05    0.3669487 0.0061180275            0   0.36083067    1.4200692    1.7870179    4.1236225 
 1535000   0.89859018 5.7419654e-05   0.44968078 0.0076165569            0   0.44206422    1.3310367    1.7807175    4.7206037 
 1540000   0.89634536 4.9714365e-05    0.4241715 0.0099729684            0   0.41419853    1.3277116    1.7518831    4.2972585 
 1545000   0.91721633 0.00010415688   0.36375233 0.0041732097            0   0.35957912    1.3586267     1.722379    7.0552113 
 1550000   0.88632647 2.9311322e-05   0.39332067  0.004977854            0   0.38834282    1.3128711    1.7061918    3.2069315 
 1555000   0.81543383 -7.27369e-05   0.48442147  0.023862777            0   0.46055869    1.2078614    1.6922828   -2.0318464 
 1560000    0.7937754 0.00013789807   0.51639248  0.060082802            0   0.45630968    1.1757798    1.6921723    8.7525535 
 1565000   0.86898733 -5.5984795e-05   0.42389834  0.027581469            0   0.39631687    1.2871875    1.7110858   -1.1553357 
 1570000   0.82049825 -9.3350297e-05   0.50072031  0.025229433            0   0.47549088     1.215363    1.7160833   -3.0634519 
 1575000   0.88665529 0.00018698587   0.41070869 0.0097892117            0   0.40091948    1.3133581    1.7240668    11.297743 
 1580000   0.83316081 7.6517063e-05   0.48719343 0.00086866917            0   0.48632476    1.2341194    1.7213129    5.6389865 
 1585000   0.86811368 -1.6516345e-05   0.43728759 4.7003979e-05            0   0.43724058    1.2858934     1.723181   0.87754411 
 1590000   0.89997411 6.4893448e-06   0.40595044            0            0   0.40595044    1.3330867    1.7390371    2.0712916 
 1595000   0.90607695 -0.00010595164   0.34804369 2.4099956e-06            0   0.34804128    1.3421265    1.6901702   -3.7345538 
 1600000   0.81011608 -2.0048106e-05   0.48176447 0.0052968907            0   0.47646758    1.1999844    1.6817489   0.65528588 
 1605000   0.80415913 0.00013646705   0.49040313  0.031028495            0   0.45937464    1.1911607    1.6815638    8.6686768 
 1610000   0.85683081 4.2472542e-05   0.40248902  0.017667385            0   0.38482164    1.2691806    1.6716697    3.8462638 
 1615000    0.7762254 -5.48631e-07   0.54591087 0.0076474249            0   0.53826344    1.1497839    1.6956947    1.6676048 
 1620000   0.88689741 8.7968674e-05   0.38708546 0.0064432842            0   0.38064218    1.3137168    1.7008022    6.2047984 
 1625000   0.84859507 5.8592636e-05   0.45550779 0.0041285257            0   0.45137927    1.2569814    1.7124892    4.7124322 
 1630000    0.9011433 4.4930593e-05   0.39366014 0.0026643348            0    0.3909958    1.3348185    1.7284787     4.028925 
 1635000   0.80070998 1.5226295e-05   0.54277222 0.0094190666            0   0.53335316    1.1860517    1.7288239    2.5084102 
 1640000   0.91770302 -0.00012711927    0.3972576  0.012818879            0   0.38443872    1.3593476    1.7566052   -4.7519016 
 1645000   0.88846327 -4.1396858e-05   0.44946349 0.0075193228            0   0.44194417    1.3160362    1.7654997  -0.35401944 
 1650000   0.84648142 1.915985e-05   0.50747414  0.008322111            0   0.49915203    1.2538506    1.7613247    2.7423091 
 1655000   0.85438272 5.2524994e-05    0.5304462 0.0073847816            0   0.52306142    1.2655544    1.7960006    4.4852803 
 1660000   0.93776886 -9.0433553e-05   0.43121076  0.041818229            0   0.38939253    1.3890701    1.8202809    -2.809917 
 1665000   0.88331702 -6.2013047e-05   0.49951518  0.035380572            0    0.4641346    1.3084133    1.8079285   -1.3671395 
 1670000   0.85059368 2.1736169e-05   0.56974739   0.02366909            0    0.5460783    1.2599419    1.8296893    2.9425811 
 1675000   0.92546834 -6.1934296e-05   0.46729579   0.01066132            0   0.45663447      1.37085    1.8381458   -1.3328902 
 1680000   0.89445092 0.0001174286   0.48150204  0.005402633            0   0.47609941    1.3249054    1.8064075    7.8187518 
 1685000   0.90023656 0.00016745481    0.4865025  0.016353672            0   0.47014883    1.3334754    1.8199779    10.393664 
 1690000   0.91632269 4.447828e-06   0.46872618 0.0092114331            0   0.45951474     1.357303    1.8260292     2.053758 
 1695000   0.90204986 -0.00012680393   0.49743333   0.00941494            0   0.48801839    1.3361614    1.8335947   -4.6587664 
 1700000   0.94250533 -8.5688242e-05    0.4567608  0.013309132            0   0.44345167     1.396086    1.8528468   -2.5343912 
 1705000   0.84800949 -4.0490236e-05   0.56830577  0.012533564            0   0.55577221    1.2561141    1.8244198  -0.24868026 
 1710000   0.90183427 -4.378747e-05   0.49697229  0.016795032            0   0.48017726     1.335842    1.8328143  -0.40910415 
 1715000   0.86708726 -5.6402914e-05   0.53570478  0.063357226            0   0.47234755     1.284373    1.8200778   -1.0677514 
 1720000   0.82873135 -3.4388339e-05   0.59583821  0.033353728            0   0.56248448    1.2275583    1.8233965  0.062713544 
 1725000   0.94307594 2.6071435e-06   0.40111663  0.022558384            0   0.37855824    1.3969312    1.7980479    1.9315336 
 1730000   0.86752106 -4.6143633e-06   0.49918147   0.01946678            0   0.47971469    1.2850156     1.784197    1.5479416 
 1735000   0.83600776 1.0552179e-05   0.51410446   0.01964695            0   0.49445751    1.2383365     1.752441    2.2927125 
 1740000   0.90847273 8.4422491e-05   0.40983301  0.011120008            0     0.398713    1.3456752    1.7555082    6.0779398 
 1745000   0.91193178 8.8116776e-05   0.42443059  0.012013415            0   0.41241718     1.350799    1.7752296    6.2868085 
 1750000   0.81735481 -5.4804513e-06   0.55110286  0.015493159            0    0.5356097    1.2107068    1.7618097    1.4812106 
 1755000   0.89234882 4.5830379e-05   0.46745195 0.0081292115            0   0.45932274    1.3217917    1.7892436     4.135759 
 1760000   0.86353404 4.0506442e-05    0.4980098  0.011825068            0   0.48618473    1.2791098    1.7771196    3.8510494 
 1765000   0.90864212 -1.3228505e-06   0.44373645 0.0035934428            0     0.440143    1.3459261    1.7896626    1.7219326 
 1770000   0.85810345 0.00014025592    0.5026321 0.0085413329            0   0.49409076    1.2710657    1.7736978     8.954801 
 1775000   0.85238616 0.00014068777   0.52142685  0.015956908            0   0.50546995     1.262597    1.7840238    8.9872377 
 1780000   0.94435792 -2.8964452e-05   0.40912752 0.0090159601            0   0.40011156    1.3988302    1.8079577   0.32497773 
 1785000   0.83064425 -9.1081978e-05   0.56760091  0.018242817            0   0.54935809    1.2303918    1.7979927   -2.8654046 
 1790000   0.92729408 2.6087992e-05   0.40784755  0.027024527            0   0.38082303    1.3735544    1.7814019    3.1171071 
 1795000   0.85706285 9.047009e-07    0.5169211  0.017887801            0   0.49903329    1.2695244    1.7864454    1.8327661 
 1800000   0.87330951 3.7049014e-05   0.50930013  0.015967734            0    0.4933324    1.2935897    1.8028898    3.6997994 
 1805000   0.89573097 9.6018963e-06    0.4670749  0.014348376            0   0.45272653    1.3268015    1.7938764    2.2854935 
 1810000   0.91677507 5.7719653e-06   0.45336143  0.023098159            0   0.43026327    1.3579731    1.8113345    2.1068591 
 1815000   0.87952497 -6.331516e-05   0.51703995  0.026882219            0   0.49015774    1.3027964    1.8198363   -1.4218999 
 1820000   0.96572045 -7.2487529e-05   0.39496192  0.013693184            0   0.38126873    1.4304734    1.8254353   -1.8859261 
 1825000   0.94617205 7.7624808e-05   0.44423115  0.031059709            0   0.41317144    1.4015173    1.8457485    5.8201387 
 1830000    0.8679222 -4.5121331e-05   0.54128931  0.065386657            0   0.47590266    1.2856098    1.8268991  -0.48331307 
 1835000    0.8675979 -9.6230352e-05   0.51708879   0.01782192            0   0.49926687    1.2851294    1.8022182   -3.1247758 
 1840000   0.93187383 4.2630065e-06   0.42732071  0.021513524            0   0.40580718    1.3803381    1.8076588    2.0259248 
 1845000   0.89686324 -3.430068e-05   0.49446726    0.0117424            0   0.48272486    1.3284787    1.8229459  0.066751108 
 1850000   0.95609851 4.5608113e-05   0.41603897  0.010671005            0   0.40536796    1.4162209    1.8322599    4.1673953 
 1855000   0.89511656 3.9405438e-05    0.5333087  0.011818982            0   0.52148972    1.3258914    1.8592001    3.8767585 
 1860000   0.92364253 -0.00019320204   0.47545249 0.0037244947            0     0.471728    1.3681455     1.843598   -8.0483466 
 1865000   0.96305779 -8.5270529e-05   0.40389082  0.016108895            0   0.38778192    1.4265294    1.8304202   -2.5354309 
 1870000   0.90251783 0.00011934304   0.49045522  0.018421873            0   0.47203335    1.3368545    1.8273098    7.9376732 
 1875000   0.90229678 -6.1031673e-06   0.49171586 0.0092978942            0   0.48241797    1.3365271     1.828243    1.5157608 
 1880000   0.95350849 0.00011263836   0.43767562  0.008641056            0   0.42903456    1.4123844    1.8500601    7.6171442 
 1885000    0.9885458 0.0001001247   0.39306378 0.0033817266            0   0.38968206    1.4642835    1.8573472    6.9837317 
 1890000   0.98450704 0.00015639237   0.42757108 0.0013363027            0   0.42623477     1.458301    1.8858721    9.8931615 
 1895000   0.96753968 9.5986142e-05   0.45357072 0.0012184238            0    0.4523523    1.4331681    1.8867389    6.8012293 
 1900000   0.96208832 -7.6898632e-05   0.49028388  0.013195923            0   0.47708795    1.4250933    1.9153772   -2.0218327 
 1905000   0.97844834 -6.9491022e-05   0.46653315  0.025375415            0   0.44115774    1.4493266    1.9158598   -1.6420806 
 1910000   0.93452938 -0.00020890933   0.53241097  0.019513079            0   0.51289789    1.3842716    1.9166826   -8.7794749 
 1915000   0.96947253 -2.6245214e-05   0.49360325  0.029363942            0    0.4642393    1.4360312    1.9296344   0.58587949 
 1920000   0.98134048 5.9217318e-05   0.48480949   0.01682278            0   0.46798671    1.4536106    1.9384201    4.9703468 
 1925000   0.90044938 -3.1206236e-05   0.59547372   0.02553939            0   0.56993433    1.3337906    1.9292644   0.33150509 
 1930000   0.92530898 0.00015970266   0.57039347  0.054222113            0   0.51617136    1.3706139    1.9410074    10.117783 
 1935000   0.90897375 -9.5848088e-05   0.58815605  0.048428687            0   0.53972736    1.3464174    1.9345734   -2.9728487 
 1940000   0.98675048 8.4337044e-05   0.49347668   0.02041224            0   0.47306444    1.4616242    1.9551008    6.2731575 
 1945000     1.005541 -3.0746602e-06   0.46976824 0.0077670284            0   0.46200121    1.4894576    1.9592258    1.8018032 
 1950000   0.93733371 -1.2092525e-05   0.57479396  0.026628603            0   0.54816536    1.3884256    1.9632195    1.3440822 
 1955000   0.97519212 -3.5144615e-05   0.51961575  0.013337694            0   0.50627805    1.4445033    1.9641191    0.1647148 
 1960000     1.002702 -6.2882646e-05   0.50255003  0.012901345            0   0.48964869    1.4852523    1.9878023   -1.2317892 
 1965000   0.90844755 -4.9825739e-05   0.65027309  0.033521771            0   0.61675132    1.3456379     1.995911  -0.55516684 
 1970000     1.003474 -9.4995029e-05   0.54520408   0.10106504            0   0.44413904    1.4863958    2.0315999   -2.8321456 
 1975000   0.99828838 1.0866198e-06   0.52952309  0.018914218            0   0.51060887    1.4787147    2.0082378    2.0638727 
 1980000   0.98102891 6.7114842e-05   0.55129439  0.034965128            0   0.51632926    1.4531491    2.0044435    5.4407233 
 1985000    1.0142114 -7.3421399e-05   0.50478426    0.0323815            0   0.47240276    1.5023006    2.0070848   -1.7520908 
 1990000   0.98706996 0.00011040788   0.55629984   0.06837359            0   0.48792625    1.4620974    2.0183972    7.6712808 
 1995000    1.0426027 0.00013149431   0.43868799  0.016979297            0   0.42170869    1.5443552    1.9830432    8.7155517 
 2000000    1.0166614 -4.4341929e-05   0.47125397  0.036677271            0    0.4345767    1.5059297    1.9771837  -0.29312307 
 2005000    1.0645437 2.8576006e-05   0.41866666  0.025948594            0   0.39271807    1.5768553     1.995522    3.4586135 
 2010000    0.8964948 -8.3175151e-05   0.61158272  0.088560923            0    0.5230218    1.3279329    1.9395156   -2.3190521 
 2015000    0.9426009 3.1575789e-05   0.53365337 0.0073937994            0   0.52625957    1.3962276    1.9298809    3.5465614 
 2020000   0.94082763 -5.5298113e-05   0.53114871 0.0089801279            0   0.52216858    1.3936009    1.9247496  -0.90651376 
 2025000     1.009411 0.00015399139   0.45427832 0.0020988602            0   0.45217946      1.49519    1.9494683    9.8338275 
 2030000    1.0611549 8.5686617e-05   0.37392491 0.0035781062            0    0.3703468    1.5718358    1.9457607    6.3329155 
 2035000   0.98070715 -7.6396302e-06    0.4927634  0.020134409            0   0.47262899    1.4526725    1.9454359    1.5542868 
 2040000   0.99600164 -4.2966325e-05   0.48803262  0.011887223            0    0.4761454    1.4753274    1.9633601  -0.23651577 
 2045000    0.9934367 -0.00016828386   0.50595291  0.012705021            0   0.49324789    1.4715281     1.977481   -6.6386527 
 2050000    0.9832859 0.00014202737   0.52583777  0.012802012            0   0.51303576    1.4564922      1.98233    9.2541315 
 2055000    1.0602833 8.6367535e-05     0.437429  0.034174623            0   0.40325438    1.5705447    2.0079737    6.4299915 
 2060000   0.99955915 2.9233315e-05   0.53611846  0.025400426            0   0.51071804     1.480597    2.0167155    3.5134612 
 2065000   0.94903409 0.00020401813   0.59439815  0.031056701            0   0.56334145    1.4057568    2.0001549    12.445883 
 2070000    1.0337287 -2.2831982e-05   0.47577079  0.012836984            0   0.46293381    1.5312107    2.0069814   0.83798395 
 2075000    1.0342171 -1.7132733e-05   0.46991954 0.0010282397            0    0.4688913    1.5319341    2.0018536    1.1246577 
 2080000    1.0590769 7.009768e-05   0.47069441 0.00059726879            0   0.47009714    1.5687577    2.0394521    5.6284533 
 2085000    1.0305922 -0.00014625884   0.50322258 4.5510009e-05            0   0.50317707    1.5265647    2.0297873   -5.4586652 
 2090000     1.058566 -4.4738261e-05   0.44257198 0.0016038093            0   0.44096818    1.5680008    2.0105728  -0.28002613 
 2095000    1.0665191 7.2734884e-05   0.41503097  0.007072614            0   0.40795836    1.5797815    1.9948124    5.7188385 
 2100000   0.94701355 -0.00011952081   0.57460551 0.0054804614            0   0.56912505    1.4027638    1.9773693   -4.1420962 
 2105000      1.01723 2.448782e-05   0.47722199 0.0052372995            0   0.47198469    1.5067719    1.9839939    3.2377703 
 2110000   0.99394275 2.2647627e-05   0.51956069  0.011705208            0   0.50785548    1.4722777    1.9918384    3.1513969 
 2115000    1.0039292 -0.00013896292   0.47894461 0.0094288461            0   0.46951576    1.4870701    1.9660147   -5.1488867 
 2120000   0.98850497 -4.764452e-05   0.49079741  0.018212204            0   0.47258521     1.464223    1.9550204  -0.48437901 
 2125000   0.96762748 4.2885685e-05   0.54112759  0.024816668            0   0.51631092    1.4332982    1.9744258    4.1701728 
 2130000    1.0327947 6.3046945e-05   0.45217599   0.03132133            0   0.42085466    1.5298272    1.9820032    5.2100068 
 2135000   0.98345855 -7.5853448e-05   0.54758916  0.043807282            0   0.50378187     1.456748    2.0043371   -1.8793594 
 2140000    1.0425773 3.2932774e-05   0.47557695  0.032069391            0   0.44350756    1.5443177    2.0198946    3.7060526 
 2145000    1.0830062 4.3212953e-06   0.40987885 0.0097211671            0   0.40015769    1.6042029    2.0140818    2.2353321 
 2150000   0.98580542 -0.00017442517   0.55482258  0.016546925            0   0.53827565    1.4602243    2.0150469    -6.915522 
 2155000    1.0264483 7.1387275e-06   0.53999262  0.051550013            0   0.48844261    1.5204266    2.0604192     2.425922 
 2160000    1.0235835 6.0646619e-06    0.5379265   0.05161519            0   0.48631131    1.5161831    2.0541096    2.3646202 
 2165000    1.0816897 1.0335475e-05   0.47363195 0.0051755001            0   0.46845645    1.6022529    2.0758849    2.6050612 
 2170000    1.0146869 -6.5055111e-05   0.56929906 0.00025227992            0   0.56904678    1.5030049     2.072304   -1.2585177 
 2175000    1.0692024 -0.00013602668   0.50687325 0.00092779862            0   0.50594545     1.583756    2.0906292    -4.873937 
 2180000     1.042119 1.2281055e-05   0.52093356 0.0073689242            0   0.51356463    1.5436388    2.0645723    2.6933623 
 2185000    1.0260061 -5.1426968e-06    0.5550481 0.0097554609            0   0.54529264    1.5197716    2.0748197    1.8115136 
 2190000    1.0633132 -6.6420809e-05    0.5177209   0.01127499            0   0.50644591    1.5750327    2.0927536   -1.3079919 
 2195000    1.0675784 4.1934735e-05   0.48196839  0.022669477            0   0.45929892    1.5813505    2.0633189    4.2103773 
 2200000   0.95172049 5.0490932e-05   0.62950744  0.034152762            0   0.59535468     1.409736    2.0392434    4.6243791 
 2205000    1.0076865 0.0001355494   0.51356461  0.036654307            0    0.4769103    1.4926356    2.0062002    8.9463293 
 2210000    1.0637933 5.9812617e-06   0.43519164  0.027918173            0   0.40727347    1.5757438    2.0109354     2.317176 
 2215000    1.0274875 -8.4137326e-05   0.47204286   0.01773964            0   0.45430322    1.5219658    1.9940087   -2.3138224 
 2220000   0.99425068 -1.8311178e-05   0.52032012  0.046129768            0   0.47419035    1.4727338    1.9930539    1.0555216 
 2225000   0.99521417 8.8834098e-05   0.52093722  0.022777929            0   0.49815929     1.474161    1.9950982     6.543404 
 2230000    1.0002243 7.2146302e-05   0.48964519  0.015288035            0   0.47435716    1.4815822    1.9712274     5.665118 
 2235000   0.94478375 -0.00019088406   0.58402433  0.016133346            0   0.56789099    1.3994609    1.9834853   -7.7897786 
 2240000   0.95391241 -1.7824628e-05   0.58122098  0.035714758            0   0.54550622    1.4129828    1.9942037    1.0815828 
 2245000   0.96362895 0.00012893633   0.54386134  0.024514918            0   0.51934642    1.4273754    1.9712367    8.5727768 
 2250000    0.9545409 -2.6370603e-06   0.57766712  0.019935134            0   0.55773199    1.4139137    1.9915808    1.8565633 
 2255000   0.98295554 6.2575444e-05   0.52928786  0.023978666            0   0.50530919    1.4560029    1.9852908    5.1891535 
 2260000   0.97092154 8.9241092e-05   0.55600431  0.025505353            0   0.53049896    1.4381775    1.9941818    6.5633258 
 2265000   0.90596739 -1.42711e-05   0.64497267  0.050303899            0   0.59466877    1.3419642    1.9869369    1.2562565 
 2270000   0.97543191 -1.0123498e-05   0.54140254  0.051968709            0   0.48943383    1.4448585    1.9862611     1.467938 
 2275000   0.98247803 1.110422e-05   0.53158111  0.010739806            0    0.5208413    1.4552956    1.9868767    2.5554127 
 2280000   0.94999006 5.874163e-05   0.60052284  0.010129015            0   0.59039383    1.4071728    2.0076956    5.0152671 
 2285000   0.99681205 2.2163324e-05   0.54678546  0.010513016            0   0.53627244    1.4765278    2.0233133    3.1580755 
 2290000    0.9999189 4.7856742e-05   0.53147905 0.0035452744            0   0.52793378    1.4811299    2.0126089    4.4628741 
 2295000   0.96945059 0.00010852319   0.57702169 0.0079546622            0   0.56906703    1.4359987    2.0130204    7.5694076 
 2300000   0.94680205 -3.4901532e-05   0.60920738  0.012949218            0   0.59625816    1.4024505    2.0116579   0.22469947 
 2305000   0.95561273 -1.746434e-05   0.60832797  0.014289385            0   0.59403858    1.4155014    2.0238293    1.1296551 
 2310000   0.97431848 5.7799546e-05   0.57782911   0.01437067            0   0.56345844    1.4432092    2.0210384    4.9803751 
 2315000    1.0473144 5.542316e-06   0.43848954  0.016503221            0   0.42198632    1.5513344     1.989824    2.2735906 
 2320000   0.86152945 -1.7841469e-05    0.7006829  0.046732776            0   0.65395012    1.2761405    1.9768234    1.0633402 
 2325000    1.0052157 2.3615832e-05      0.50684   0.01507189            0   0.49176811    1.4889758    1.9958158    3.2049464 
 2330000    0.9877533 -2.0433998e-05    0.5499433  0.013182901            0    0.5367604    1.4631096    2.0130529   0.96683216 
 2335000   0.90224679 -2.3830424e-05   0.67308867   0.03400965            0   0.63907902    1.3364531    2.0095417   0.78942403 
 2340000   0.98862058 0.00012074278   0.54415219  0.034094057            0   0.51005814    1.4643942    2.0085464     8.190577 
 2345000   0.95230244 0.0001541778   0.58861148  0.012014894            0   0.57659659     1.410598    1.9992095    9.8931128 
 2350000    1.0474012 -2.3581468e-05   0.46259672 0.0058646366            0   0.45673208     1.551463    2.0140598   0.80668857 
 2355000   0.97566558 -9.4172169e-05   0.53855105 0.0078115966            0   0.53073945    1.4452046    1.9837557   -2.8378593 
 2360000   0.91956873 3.0666162e-05   0.59224906  0.037845058            0   0.55440401    1.3621112    1.9543603    3.5244677 
 2365000    1.0301785 5.7508946e-05   0.44258968  0.019780253            0   0.42280943    1.5259519    1.9685416    4.9129996 
 2370000   0.91608946 -8.145952e-05   0.56702007 0.0040378474            0   0.56298222    1.3569575    1.9239776   -2.2467498 
 2375000   0.97036897 8.5730409e-06   0.48583502  0.035299596            0   0.45053543     1.437359    1.9231941    2.3621337 
 2380000   0.96222262 0.0001230381   0.48196231  0.016848737            0   0.46511357    1.4252923    1.9072546     8.206805 
 2385000   0.99885896 0.00010583903   0.45369421  0.021075127            0   0.43261908    1.4795598     1.933254    7.3522124 
 2390000   0.92799077 -1.3937136e-05   0.57761568  0.057301529            0   0.52031415    1.3745863     1.952202    1.2386206 
 2395000    1.0285037 -4.221924e-05   0.43802977   0.01634775            0   0.42168202     1.523471    1.9615008  -0.20012428 
 2400000    1.0351333 -2.3430346e-06   0.47206452 0.0015149122            0   0.47054961    1.5332912    2.0053557    1.8853924 
 2405000   0.95276568 -3.2586381e-05   0.58971261  0.013731151            0   0.57598146    1.4112842    2.0009968   0.33257408 
 2410000    0.9276695 2.1740095e-05   0.60524272  0.042331365            0   0.56291135    1.3741105    1.9793532     3.092446 
 2415000    1.0514364 -2.6771578e-06   0.43617561  0.027137928            0   0.40903768    1.5574402    1.9936158    1.8565454 
 2420000   0.98173843 -9.1147054e-05   0.55319844  0.010805523            0   0.54239292       1.4542    2.0073985   -2.6593307 
 2425000    1.0484652 3.328769e-05   0.44750438  0.010273018            0   0.43723136    1.5530391    2.0005434    3.7048731 
 2430000   0.99227414 9.2590152e-05   0.54994206  0.048183695            0   0.50175837    1.4698061    2.0197481    6.7603639 
 2435000    1.0286993 3.8791166e-05   0.54421786  0.075018025            0   0.46919984    1.5237609    2.0679787    4.0540864 
 2440000    1.0406919 9.5415064e-05   0.53587174  0.047820521            0   0.48805122    1.5415249    2.0773967     6.962648 
 2445000    1.0063681 0.00015237953   0.58748782  0.036149085            0   0.55133874    1.4906828    2.0781706    9.8800028 
 2450000    1.0051832 0.00012395753   0.56185622  0.022402239            0   0.53945398    1.4889275    2.0507838    8.3974091 
 2455000   0.97439356 0.00011947089   0.60068819  0.038383702            0   0.56230449    1.4433205    2.0440087    8.1609184 
 2460000    0.9736386 8.9208675e-05   0.61082553  0.086099584            0   0.52472595    1.4422022    2.0530277    6.6205119 
 2465000     1.034296 2.7562374e-05   0.49063183  0.047506476            0   0.44312535    1.5320509    2.0226828    3.4338763 
 2470000    1.0018364 -7.5655229e-05   0.55717397 0.0079069584            0   0.54926701    1.4839702    2.0411442   -1.8324035 
 2475000    1.0158519 -0.00011341697   0.52854946 0.0039841656            0    0.5245653    1.5047307    2.0332801   -3.7736688 
 2480000    1.0727896 -7.592404e-07    0.4499362 0.0040395519            0   0.44589665    1.5890696    2.0390058    2.0001327 
 2485000   0.95039955 8.7094725e-05    0.6273111 0.0042577351            0   0.62305336    1.4077793    2.0350904    6.4943404 
 2490000    1.0515749 4.8842288e-05   0.48104387 0.0060545447            0   0.47498932    1.5576453    2.0386892    4.5394143 
 2495000    1.0741963 -4.6471482e-05   0.43903147  0.011678324            0   0.42735315    1.5911533    2.0301848  -0.34915513 
 2500000   0.90490801 -0.00011651936    0.6920345  0.031488157            0   0.66054635     1.340395    2.0324295   -3.9333618 
 2505000   0.99242934 -4.2304367e-05   0.57902788  0.013020144            0   0.56600774     1.470036    2.0490638  -0.11691976 
 2510000    1.0471532 7.580484e-05   0.45181735  0.017281527            0   0.43453583    1.5510957    2.0029131    5.8841209 
 2515000    1.0498737 0.00010485864   0.45574302  0.021443936            0   0.43429908    1.5551254    2.0108684    7.3796306 
 2520000    1.0173576 -6.8346728e-05   0.48604006  0.025013029            0   0.46102703     1.506961     1.993001   -1.5063515 
 2525000   0.96543877 -9.2732873e-05   0.54187184  0.015565129            0   0.52630671    1.4300562     1.971928   -2.7759951 
 2530000   0.99601799 3.9009354e-05   0.51570199  0.013716153            0   0.50198583    1.4753516    1.9910536    3.9883326 
 2535000    1.0048426 1.239788e-05   0.50031864  0.010818147            0   0.48950049    1.4884231    1.9887417    2.6235132 
 2540000    0.9186234 -0.00011825917    0.6287449 0.0044980748            0   0.62424682    1.3607109    1.9894558    -4.065414 
 2545000   0.90345632 -4.3891249e-05   0.64861655 0.0022946469            0    0.6463219    1.3382447    1.9868612  -0.26037074 
 2550000     1.008388 8.9894959e-05   0.49393761 0.00030014338            0   0.49363747    1.4936747    1.9876123    6.5902342 
 2555000    1.0290254 3.0995714e-05   0.44337693 0.00022929536            0   0.44314763    1.5242439    1.9676209    3.5546014 
 2560000   0.96033717 1.4475635e-05   0.52945788 0.0010033461            0   0.52845454    1.4224994    1.9519573    2.6931098 
 2565000   0.87997649 -7.9581396e-05   0.66388536 0.0067835702            0   0.65710179    1.3034652    1.9673505   -2.1072169 
 2570000   0.95765328 -1.5092527e-05   0.56163111  0.016132335            0   0.54549877    1.4185239     1.980155    1.2074177 
 2575000   0.97016404 6.4222965e-06   0.58257044  0.022317645            0    0.5602528    1.4370555    2.0196259    2.3484475 
 2580000    1.0259293 4.1932073e-05   0.50446785  0.023773291            0   0.48069456    1.5196578    2.0241257    4.1710478 
 2585000   0.96324069 0.00010872381   0.57115439  0.025908145            0   0.54524624    1.4268003    1.9979547    7.5646137 
 2590000    1.0005918 -4.8768843e-05   0.50309212  0.012367221            0    0.4907249    1.4821267    1.9852188  -0.51174595 
 2595000    1.0057045 4.5896293e-06   0.48639576 0.0052091157            0   0.48118665    1.4896998    1.9760956    2.2110846 
 2600000   0.97019186 -0.00012166572    0.5421413 0.0065785055            0    0.5355628    1.4370967     1.979238   -4.2500468 
 2605000    1.0532827 6.2173846e-05   0.47791317 0.0075840664            0   0.47032911    1.5601749    2.0380881     5.221389 
 2610000     1.062923 9.1229195e-05   0.47819937  0.034651944            0   0.44354743    1.5744547    2.0526541    6.7235889 
 2615000    1.0896324 -4.8675815e-07   0.45009283  0.019594266            0   0.43049857    1.6140181    2.0641109    2.0391889 
 2620000    1.0127667 5.1061328e-05   0.51648644  0.013544889            0   0.50294155    1.5001607    2.0166472    4.6309871 
 2625000    1.0220783 2.5259138e-05    0.4840512  0.048631588            0   0.43541961    1.5139535    1.9980047    3.2912726 
 2630000   0.98442537 8.0657317e-05   0.53611027  0.011832125            0   0.52427814    1.4581801    1.9942903     6.123945 
 2635000    0.9724991 5.9682689e-05   0.55682514 0.0044471437            0   0.55237799    1.4405143    1.9973394    5.0530931 
 2640000    0.9850234 2.0762654e-05   0.50841788  0.022857067            0   0.48556082    1.4590659    1.9674838    3.0305317 
 2645000   0.95197526 -3.0026561e-05   0.56243615  0.042178366            0   0.52025778    1.4101133    1.9725495   0.43518956 
 2650000   0.99565152 -6.6178088e-06   0.51254377  0.037084898            0   0.47545887    1.4748088    1.9873526    1.6485208 
 2655000    1.0548081 9.2902156e-05    0.4395556  0.032082208            0   0.40747339    1.5624345    2.0019901    6.7585805 
 2660000   0.92882385 0.00016157963   0.63550447  0.019290022            0   0.61621444    1.3758203    2.0113248    10.284202 
 2665000     1.065074 3.0861269e-05   0.44672226  0.015208448            0   0.43151382    1.5776408    2.0243631      3.60446 
 2670000    1.0215431 -0.00021158649   0.52403015  0.025698863            0   0.49833129    1.5131608    2.0371909   -8.7960371 
 2675000    1.0128407 -9.383579e-05   0.54401274  0.042818338            0    0.5011944    1.5002703     2.044283   -2.7601094 
 2680000    1.0335225 0.00014177625   0.51637077  0.019553443            0   0.49681733    1.5309052     2.047276    9.3062201 
 2685000   0.97076295 2.2880616e-06    0.5808388  0.024442418            0   0.55639638    1.4379426    2.0187814    2.1359302 
 2690000    1.0858902 -6.6982145e-07   0.41100456  0.016293271            0   0.39471129    1.6084749    2.0194794    1.9851846 
 2695000    0.9915703 8.8624275e-05   0.56028058  0.010519418            0   0.54976116    1.4687635    2.0290441     6.566607 
 2700000    1.0163063 0.00010402228   0.52645863  0.012111055            0   0.51434757    1.5054037    2.0318623    7.3578029 
 2705000   0.96713594 4.5053134e-05   0.57167415  0.024013054            0   0.54766109    1.4325701    2.0042443    4.3109647 
 2710000   0.95921268 -9.7229876e-05    0.5934156  0.014177701            0    0.5792379    1.4208338    2.0142494   -2.9639203 
 2715000    1.0655544 -7.9714018e-05   0.42014966  0.001194308            0   0.41895536    1.5783525    1.9985021   -2.0828556 
 2720000    1.0807454 -2.104134e-06   0.43267544 0.0030398752            0   0.42963556    1.6008541    2.0335295    1.9257979 
 2725000   0.97882903 0.0001100351   0.56225901   0.01011064            0   0.55214837    1.4498905    2.0121495    7.6459468 
 2730000    1.0130771 0.0001661632   0.49978182  0.030451639            0   0.46933018    1.5006204    2.0004022    10.507958 
 2735000    1.0045936 4.3535715e-05   0.51855828  0.062900024            0   0.45565825    1.4880542    2.0066125    4.2356411 
 2740000   0.98636041 -2.6018041e-05   0.50432051  0.045316856            0   0.45900365    1.4610464    1.9653669   0.63324319 
 2745000   0.92433986 -8.8557092e-05    0.6066634 0.0085201099            0   0.59814329    1.3691784    1.9758418   -2.5582813 
 2750000    1.0151715 -6.9487609e-05   0.48053763 0.0019524253            0    0.4785852    1.5037227    1.9842604   -1.5735052 
 2755000   0.98326035 4.8085512e-05    0.5467305 0.0051050921            0   0.54162541    1.4564544    2.0031849    4.4651631 
 2760000     1.009209 4.7894902e-05   0.52171493  0.016429099            0   0.50528583    1.4948908    2.0166057    4.4688247 
 2765000    0.9971644 9.4116345e-05   0.54116746  0.031336704            0   0.50983075    1.4770498    2.0182172    6.8369741 
 2770000   0.96293044 0.00016749309   0.57318786  0.018889276            0   0.55429859    1.4263407    1.9995286    10.575175 
 2775000   0.97955079 1.6612992e-05    0.5552428  0.012496216            0   0.54274659    1.4509596    2.0062024    2.8567876 
 2780000    1.0203115 -5.9821285e-05   0.49965914  0.017322528            0   0.48233661    1.5113365    2.0109956   -1.0518542 
 2785000   0.97783476 -9.4798687e-05   0.55463869  0.029703233            0   0.52493545    1.4484177    2.0030564   -2.8506363 
 2790000    1.0385262 -6.6814245e-05   0.46244965  0.021186011            0   0.44126364     1.538317    2.0007666   -1.4201227 
 2795000    1.0100598 9.6244219e-05   0.49177754  0.015736186            0   0.47604136    1.4961511    1.9879286    6.9156326 
 2800000   0.98760559 7.6621095e-05   0.52313829 0.0060526549            0   0.51708563    1.4628908    1.9860291    5.9090291 
 2805000   0.96063927 -0.00014994695   0.58466039 0.0042303186            0   0.58043007    1.4229469    2.0076073   -5.6696763 
 2810000   0.94436566 -1.2208474e-05   0.60157999 0.0078069274            0   0.59377306    1.3988416    2.0004216    1.3753477 
 2815000   0.96521788 0.00017708313   0.55960129  0.021391378            0   0.53820991     1.429729    1.9893303    11.055987 
 2820000   0.97496401 -3.316582e-05   0.51960256  0.011728242            0   0.50787432    1.4441654     1.963768   0.26567799 
 2825000    1.0503052 -0.000106946   0.41670219 0.0026784023            0   0.41402379    1.5557646    1.9724668   -3.5031686 
 2830000    1.0490716 -2.2485464e-05    0.4479664  0.011608577            0   0.43635782    1.5539373    2.0019037   0.85064793 
 2835000   0.92927725 3.0484868e-05   0.59710102  0.044705185            0   0.55239584    1.3764919     1.973593    3.5344182 
 2840000    1.0089352 -2.3688349e-05   0.44858302  0.038788764            0   0.40979426    1.4944852    1.9430683   0.73022482 
 2845000   0.96850355 -4.5148967e-05   0.49094671  0.035251311            0    0.4556954    1.4345959    1.9255426  -0.38608454 
 2850000    1.0020205 0.0001244528    0.4746564   0.02387281            0   0.45078359    1.4842428    1.9588992    8.3308827 
 2855000   0.96426634 0.00012559674   0.52188039  0.018342278            0   0.50353811    1.4283195    1.9501999     8.380753 
 2860000   0.96033629 6.6113906e-05   0.51445362  0.019120553            0   0.49533307    1.4224981    1.9369518    5.3219837 
 2865000   0.96954027 4.3761968e-05   0.48187309  0.035498686            0   0.44637441    1.4361315    1.9180046    4.1586174 
 2870000   0.94680782 -5.1637471e-05   0.50474194  0.030508518            0   0.47423342    1.4024591     1.907201  -0.73663751 
 2875000   0.94632219 -0.00011620135   0.51638658  0.012888937            0   0.50349765    1.4017397    1.9181263   -4.0313826 
 2880000   0.91711355 -2.2413118e-05   0.56227267  0.035867647            0   0.52640502    1.3584744    1.9207471   0.77319549 
 2885000   0.96442268 8.3835097e-07   0.52213631  0.012162812            0    0.5099735    1.4285511    1.9506874     1.993611 
 2890000    1.0216576 -5.8087877e-05    0.4479425 0.0062726502            0   0.44166985    1.5133303    1.9612728   -1.0128265 
 2895000   0.92519557 -7.1325411e-05   0.60418161   0.03591736            0   0.56826425    1.3704459    1.9746275   -1.6772335 
 2900000   0.88534799 -5.6430252e-05   0.65836208  0.089728321            0   0.56863376    1.3114217    1.9697838   -0.9194451 
 2905000    1.0323849 1.0329652e-05   0.44378337  0.047386357            0   0.39639701    1.5292201    1.9730034    2.5018816 
 2910000   0.94125392 -1.4260705e-05   0.57430928  0.007672134            0   0.56663715    1.3942324    1.9685416    1.2383935 
 2915000   0.94860619 0.00012953607   0.56063427  0.006726818            0   0.55390745    1.4051229    1.9657572    8.5980038 
 2920000   0.97036335 -2.1465179e-05   0.52725626 0.0060770293            0   0.52117923    1.4373507     1.964607   0.86558983 
 2925000   0.96485711 1.4413842e-05   0.53134057  0.013546256            0   0.51779431    1.4291946    1.9605352    2.6985239 
 2930000   0.99226676 0.00017725459   0.49911228  0.013513151            0   0.48559912    1.4697951    1.9689074    11.044342 
 2935000   0.98025586 0.00014023801   0.50047537  0.013770238            0   0.48670514     1.452004    1.9524794    9.1326656 
 2940000    1.0415298 -9.3815136e-06   0.40654346  0.030615898            0   0.37592756    1.5427661    1.9493095     1.468976 
 2945000   0.92167667 -0.00011929924   0.58526701  0.027986816            0   0.55728019    1.3652336    1.9505006   -4.1576206 
 2950000   0.98446664 -6.5886805e-05   0.48286162 0.0015601185            0    0.4813015    1.4582412    1.9411028   -1.4323016 
 2955000   0.96092543 5.8491183e-05   0.52596582  0.016210521            0    0.5097553    1.4233708    1.9493366    4.9440852 
 2960000   0.87285006 4.7044929e-05   0.66885372  0.054785305            0   0.61406842    1.2929091    1.9617629    4.3704632 
 2965000   0.95412743 5.7568335e-06   0.52789153  0.068103498            0   0.45978803    1.4133012    1.9411928    2.2359427 
 2970000   0.97081364 7.0230117e-05   0.47833981  0.019677601            0   0.45866221    1.4380177    1.9163575    5.5121395 
 2975000    1.0196328 -5.8293633e-05   0.41288647  0.013589068            0    0.3992974     1.510331    1.9232175   -1.0614165 
 2980000   0.95879766 -3.3228736e-05   0.50060018 0.0080681111            0   0.49253206     1.420219    1.9208192   0.21950795 
 2985000   0.89002987 9.4762766e-05   0.56868655  0.010588172            0   0.55809838    1.3183567    1.8870433    6.7388969 
 2990000   0.94044389 -3.7990286e-06   0.50049085  0.015947334            0   0.48454352    1.3930325    1.8935234    1.6990131 
 2995000   0.86356747 -1.4612085e-05   0.60526102  0.053314722            0    0.5519463    1.2791593    1.8844203    1.1362816 
[...]
19285000    1.1052774 6.5770266e-05   0.56699086  0.011132856            0     0.555858    1.6371922     2.204183    5.5716206 
19290000     1.067266 2.4872193e-05   0.60865176  0.012572333            0   0.59607943    1.5808877    2.1895395    3.4629958 
19295000    1.0873279 3.0268466e-06   0.61697357  0.029119837            0   0.58785373    1.6106045    2.2275781    2.3825526 
19300000    1.1123415 -5.0686276e-05   0.56001234   0.03762538            0   0.52238696    1.6476558    2.2076681  -0.38746917 
19305000    1.1337452 -8.9523884e-05   0.50989343  0.026906443            0   0.48298698    1.6793601    2.1892535   -2.3943693 
19310000    1.0873739 7.5349669e-05   0.54534795 0.0078462778            0   0.53750167    1.6106726    2.1560206    6.0139236 
19315000    1.0696216 0.00012579126   0.55777752  0.010564348            0   0.54721317     1.584377    2.1421545     8.582667 
19320000    1.0961876 4.691387e-05   0.55008305 0.0025188576            0   0.54756419    1.6237279     2.173811    4.5758011 
19325000      1.14076 8.8181065e-06   0.49046924 0.0025021808            0   0.48796706    1.6897507      2.18022     2.631707 
19330000    1.1304965 -8.3842874e-05   0.52623612 0.0020664829            0   0.52416963     1.674548    2.2007841    -2.091971 
19335000    1.1946509 -9.411331e-05   0.44589348  0.016180843            0   0.42971264    1.7695766    2.2154701   -2.6031314 
19340000     1.098699 2.6868536e-05   0.56226888  0.019360353            0   0.54290853    1.6274479    2.1897168    3.5653859 
19345000    1.1124277  8.88227e-05   0.53957728  0.033751887            0   0.50582539    1.6477835    2.1873608     6.735083 
19350000    1.1338549 1.6646185e-05   0.51958628  0.025226101            0   0.49436018    1.6795225    2.1991088    3.0513935 
19355000     1.121451 -4.0279994e-05   0.51861413  0.018029193            0   0.50058493    1.6611493    2.1797634   0.11742774 
19360000    1.0515624 1.4462753e-05   0.63896409  0.051921808            0   0.58704228    1.5576268    2.1965909    2.9370839 
19365000     1.087007 2.901481e-05   0.59530072  0.096291641            0   0.49900908    1.6101291    2.2054298     3.690988 
19370000    1.1922784 -4.0496112e-05   0.42897677  0.025870953            0   0.40310582    1.7660624    2.1950392   0.12163828 
19375000    1.0899682 -4.5746754e-05   0.56914505  0.011894771            0   0.55725027    1.6145154    2.1836604  -0.15857339 
19380000    1.0925078 -3.4985035e-05   0.55769084  0.019418491            0   0.53827235    1.6182772     2.175968   0.38473427 
19385000    1.1175345 -1.2971908e-05   0.50963213  0.081931037            0    0.4277011     1.655348    2.1649801    1.5008184 
19390000    1.0232704 2.7200834e-05   0.64742299  0.078047877            0   0.56937511    1.5157192    2.1631422    3.5558249 
19395000    1.0882893 -6.636569e-06   0.54968112  0.035928442            0   0.51375268    1.6120286    2.1617097    1.8219174 
19400000     1.090302 -4.8917507e-05   0.56544316  0.021233158            0      0.54421    1.6150098    2.1804529  -0.32412343 
19405000    1.1724101 1.3790403e-05   0.43695448 0.0096782748            0    0.4272762    1.7366325     2.173587    2.8796556 
19410000    1.0992828 3.3490961e-05   0.53811539 0.0075841838            0   0.53053121    1.6283126     2.166428    3.8811652 
19415000     1.135004 -2.0178651e-05   0.49202649 0.0063431195            0   0.48568337    1.6812247    2.1732512    1.1401043 
19420000     1.174691 -3.6062861e-05    0.4295842  0.013659842            0   0.41592436     1.740011    2.1695952   0.32317673 
19425000     1.112839 -2.5703532e-05   0.52291838  0.012034871            0   0.51088351    1.6483927    2.1713111   0.85529028 
19430000    1.1546717 -6.5643566e-05   0.44027256  0.043774173            0   0.39649838    1.7103574      2.15063   -1.2103206 
19435000    1.0108746 -0.00015558261   0.62330532  0.050145269            0   0.57316005     1.497358    2.1206633    -5.845166 
19440000    1.0540104 -0.00019711107   0.56459042  0.012347566            0   0.55224285    1.5612529    2.1258433   -7.9662437 
19445000    1.1324198 3.4592327e-05   0.44946511  0.016954899            0   0.43251021    1.6773968    2.1268619     3.897989 
19450000    1.1229386 9.0888354e-05   0.44367571  0.022605926            0   0.42106979    1.6633528    2.1070286    6.7605123 
19455000    1.0879339 -6.7331623e-05   0.51091293  0.042191786            0   0.46872114    1.6115021     2.122415   -1.3249641 
19460000    1.0150326 -0.00010669544   0.63157985  0.093247082            0   0.53833277    1.5035171    2.1350969   -3.3277094 
19465000    1.1410223 -3.8034388e-05   0.47316007   0.06002737            0    0.4131327    1.6901393    2.1632993   0.21593867 
19470000    1.1156397 6.3114383e-05   0.53590875  0.026331968            0   0.50957678    1.6525414    2.1884501    5.4199065 
19475000    1.1503786 -3.5326856e-05   0.49773451  0.008128884            0   0.48960562    1.7039983    2.2017328   0.39299782 
19480000     1.128567 -0.00014058275   0.52043252  0.017877506            0   0.50255501    1.6716898    2.1921223   -5.0057147 
19485000    1.1516322 -6.3973322e-05   0.47002191  0.012807009            0    0.4572149    1.7058552    2.1758771    -1.099557 
19490000    1.1100328 -2.6300797e-05   0.54871942 0.0027270068            0   0.54599242    1.6442362    2.1929556   0.84635476 
19495000    1.1541287 -2.4542717e-05   0.48738211 0.0065512965            0   0.48083081    1.7095531    2.1969352    0.9403481 
19500000    1.1367868 -9.7122853e-05   0.52642443  0.024828297            0   0.50159614    1.6838655    2.2102899   -2.7624001 
19505000    1.1285835 6.603568e-05   0.52999553  0.016908348            0   0.51308718    1.6717143    2.2017099    5.5827367 
19510000    1.1859781 0.0001066888   0.45300305  0.017629017            0   0.43537403    1.7567301    2.2097331    7.6721994 
19515000    1.1706756 5.2508365e-05   0.48197394  0.022825682            0   0.45914826    1.7340632    2.2160371    4.9044654 
19520000    1.2068176 -5.4255113e-05   0.45570936  0.031398477            0   0.42431088    1.7875985    2.2433079  -0.53455393 
19525000    1.2250633 -3.0007546e-05   0.44168524  0.027379532            0    0.4143057    1.8146249    2.2563102   0.71992382 
19530000    1.1686891 4.5124473e-05   0.52944796  0.019543457            0    0.5099045    1.7311208    2.2605687    4.5709417 
19535000    1.1396667 -0.00015296287   0.56644989 0.0042023464            0   0.56224754    1.6881313    2.2545812   -5.5771178 
19540000    1.1580333 -4.7471253e-05   0.52486399            0            0   0.52486399    1.7153369    2.2402008  -0.19032728 
19545000    1.1929907 -1.4145945e-05   0.44081509 8.2337505e-05            0   0.44073276    1.7671174    2.2079325    1.4836601 
19550000    1.1577911 -6.0833669e-05   0.49529545 0.0077277469            0    0.4875677    1.7149781    2.2102735  -0.90441034 
19555000    1.1568678 -8.71973e-05   0.51064501   0.04797005            0   0.46267496    1.7136104    2.2242554   -2.2402463 
19560000    1.1985155 -8.5496046e-05   0.45164602  0.021001183            0   0.43064484     1.775301     2.226947   -2.1504505 
19565000    1.1956473 3.3065005e-05   0.47385557  0.036896164            0    0.4369594    1.7710525    2.2449081    3.9378364 
19570000    1.1593619 0.00010738001   0.52179218  0.043760882            0   0.47803129    1.7173049    2.2390971    7.7369538 
19575000    1.1209524 2.8394105e-05   0.61673514    0.1025146            0   0.51422053    1.6604108    2.2771459    3.7309241 
19580000    1.2050189 4.0204422e-05   0.47482506  0.049703078            0   0.42512199    1.7849342    2.2597592    4.3182257 
19585000    1.2231533 8.3096672e-05   0.45163492 0.0068526656            0   0.44478225    1.8117958    2.2634308    6.5179804 
19590000    1.1106233 -4.6082932e-05   0.61045014   0.02935239            0   0.58109775    1.6451107    2.2555609  -0.10388527 
19595000    1.2098222 -8.8098361e-06   0.46505762  0.018702116            0    0.4463555    1.7920491    2.2571068    1.8060432 
19600000    1.1727597 0.00014551408   0.49607659 0.0074511102            0   0.48862548    1.7371503    2.2332269    9.6835476 
19605000    1.1127598 1.8835926e-05    0.5572854  0.026643763            0   0.53064164    1.6482754    2.2055608    3.1699603 
19610000    1.1415007 4.8533966e-05   0.51307786  0.024364379            0   0.48871348    1.6908479    2.2039257    4.6888648 
19615000    1.1883947 9.3510867e-05   0.43599053  0.017266018            0   0.41872451    1.7603096    2.1963001    6.9840565 
19620000     1.150002 1.2370019e-05   0.48350147  0.033173645            0   0.45032783    1.7034405     2.186942    2.8202869 
19625000    1.1657085 0.00010162061   0.48245116   0.02638768            0   0.45606348    1.7267058    2.2091569    7.4121323 
19630000    1.1180775 3.0681946e-05   0.55039067  0.033175074            0   0.51721559    1.6561524     2.206543    3.7774586 
19635000    1.1181703 -5.2425758e-05   0.54811384 0.0055436074            0   0.54257023    1.6562898    2.2044036  -0.47979519 
19640000    1.1980892 3.4352938e-05   0.44373808  0.013748348            0   0.42998973    1.7746697    2.2184078    3.9772782 
19645000    1.1661555 8.6687861e-05   0.47053761  0.066727632            0   0.40380997    1.7273679    2.1979055     6.636324 
19650000    1.1791983 2.0663959e-05   0.42129078  0.013600291            0   0.40769049    1.7466875    2.1679783     3.225973 
19655000     1.170793 7.1096016e-06   0.40887212 0.0098276232            0    0.3990445    1.7342372    2.1431093    2.5071209 
19660000    1.1038274 3.7512092e-05   0.53318544  0.036310506            0   0.49687493    1.6350443    2.1682298    4.0888489 
19665000    1.1501707 1.5131307e-05   0.43532137  0.084031024            0   0.35129035    1.7036903    2.1390117    2.9137346 
19670000    1.1099779 4.0207558e-05   0.50288821  0.036457288            0   0.46643092    1.6441548     2.147043    4.2056699 
19675000    1.1401434 -8.1804811e-06   0.43849577  0.018511747            0   0.41998403    1.6888374    2.1273332    1.7084926 
19680000    1.0506663 -7.9110744e-05    0.5770596  0.061911561            0   0.51514804    1.5562995    2.1333591    -1.917111 
19685000    1.0854208 -5.0490838e-05   0.51764432   0.07074486            0   0.44689946    1.6077795    2.1254238  -0.45970709 
19690000    1.0909432 -4.9635354e-05    0.5081401  0.020218251            0   0.48792185    1.6159597    2.1240998  -0.41723038 
19695000    1.1222686 -9.1320986e-05   0.50214273 0.0085673624            0   0.49357536    1.6623604    2.1645031   -2.5111314 
19700000    1.0429056 -5.1176501e-05   0.58534171  0.027128693            0   0.55821302    1.5448039    2.1301456  -0.49009121 
19705000    1.0876976 4.0682578e-05   0.52351979  0.047205438            0   0.47631435    1.6111521    2.1346719    4.2176199 
19710000    1.0614646 5.8663712e-05   0.56110424  0.031541236            0   0.52956301    1.5722944    2.1333987    5.1369808 
19715000     1.050205 9.9550692e-05   0.55463388  0.022709437            0   0.53192445    1.5556161      2.11025    7.2072455 
19720000    1.0961361 6.9106411e-05   0.46660702   0.03921664            0   0.42739038    1.6236516    2.0902586    5.6285068 
19725000    1.0640483 -7.4373555e-05   0.53995259  0.053260415            0   0.48669217    1.5761215    2.1160741   -1.6918519 
19730000    1.0498981 -0.00012555418   0.53811677  0.058298512            0   0.47981826    1.5551615    2.0932783    -4.335096 
19735000    1.1384344 -0.00010743302   0.42973136  0.007316904            0   0.42241446     1.686306    2.1160374   -3.3845333 
19740000    1.0668719 6.8297222e-05   0.54453489 0.0080508358            0   0.53648406     1.580304    2.1248389    5.6216566 
19745000    1.0495613 0.0001327816   0.56024532  0.037841004            0   0.52240432    1.5546627     2.114908    8.9133261 
19750000    1.1482675 -4.2777904e-05   0.43089118  0.049754454            0   0.38113672    1.7008713    2.1317624 -0.058466265 
19755000    1.0695087 -7.3165378e-05   0.50555568  0.033168031            0   0.47238765    1.5842098    2.0897655   -1.6563019 
19760000     1.080244 0.00012850345   0.48340543  0.013843885            0   0.46956154    1.6001114    2.0835168    8.6628937 
19765000    1.0578503 0.00017772134   0.49753748  0.062211113            0   0.43532636    1.5669408    2.0644783    11.163811 
19770000     1.021819 -4.5126516e-05   0.52608279  0.043429973            0   0.48265282    1.5135694    2.0396522  -0.27082539 
19775000    1.0486494 -8.402582e-05   0.48381896  0.017161841            0   0.46665712    1.5533119    2.0371308   -2.2649912 
19780000     1.098346 4.2030132e-07   0.37461897 0.0094421048            0   0.36517687    1.6269251     2.001544    2.0230635 
19785000    1.0551045 2.8216767e-05   0.41457597   0.01066214            0   0.40391383    1.5628736    1.9774496     3.422148 
19790000   0.98468171 -3.965255e-05   0.50707252  0.023217659            0   0.48385486    1.4585598    1.9656323 -0.064578276 
19795000       1.0293 -4.7440236e-05   0.45679737  0.028417608            0   0.42837977    1.5246506    1.9814479  -0.44749214 
19800000    0.9911926 1.1559108e-05   0.50298345  0.056299149            0    0.4466843     1.468204    1.9711875    2.5630138 
19805000   0.96495017 -1.7193594e-06   0.53708968  0.053048135            0   0.48404155    1.4293324    1.9664221    1.8783909 
19810000     1.019354 -4.9629127e-05   0.47265595   0.01154769            0   0.46110826    1.5099181     1.982574  -0.55843727 
19815000     1.064093 -3.5266531e-05   0.40796087  0.010535757            0   0.39742512    1.5761877    1.9841486   0.17850222 
19820000   0.99987579 -2.5288122e-05   0.50919237  0.010558388            0   0.49863399     1.481066    1.9902584   0.69550652 
19825000    1.0450452 -2.303742e-05   0.42010877  0.010575366            0    0.4095334    1.5479733     1.968082   0.78856613 
19830000   0.95311146 1.1321944e-05   0.52312535  0.057733104            0   0.46539224    1.4117964    1.9349217    2.5146052 
19835000   0.96170958 6.0801762e-05   0.52095563  0.060322656            0   0.46063298    1.4245323     1.945488    5.0585382 
19840000   0.98618231 2.4158184e-05   0.47694985  0.018732198            0   0.45821765    1.4607825    1.9377324    3.1746314 
19845000   0.97214424 3.4596346e-05   0.47602956  0.041010922            0   0.43501864    1.4399887    1.9160182    3.6873511 
19850000    1.0185719 9.4936223e-05    0.4418939  0.041715436            0   0.40017846    1.5087596    1.9506535    6.8113882 
19855000   0.99324547 2.1885472e-05   0.48537384  0.059951678            0   0.42542216    1.4712449    1.9566187    3.0771549 
19860000    1.0112822 -2.0171374e-05   0.45167666  0.029099225            0   0.42257743    1.4979618    1.9496385   0.91686413 
19865000     0.992364 -2.8284178e-05   0.49189628 0.0085561756            0    0.4833401    1.4699392    1.9618355   0.51368553 
19870000    1.0602294 -1.2251848e-05   0.41340711 0.0070565172            0   0.40635059    1.5704648     1.983872    1.3565773 
19875000     1.088002 -1.438894e-05   0.36136433 0.0044877491            0   0.35687658     1.611603    1.9729673    1.2362536 
19880000   0.97819751 -5.412979e-05   0.50433109  0.041504131            0   0.46282696    1.4489551    1.9532861  -0.81815911 
19885000   0.99481511 8.2688562e-05   0.46609303  0.046594457            0   0.41949857    1.4735699    1.9396629    6.1733173 
19890000   0.94469071 8.0980562e-05   0.50413433  0.085825006            0   0.41830932    1.3993231    1.9034574    6.0496622 
19895000    1.0074148 -1.3433562e-06   0.43593889  0.070089344            0   0.36584955    1.4922332    1.9281721    1.8593923 
19900000   0.99830228 1.7968071e-05   0.43447207  0.022430511            0   0.41204156    1.4787353    1.9132073    2.8331726 
19905000   0.97112365 -0.00012522204   0.47494393  0.023251077            0   0.45169285    1.4384769    1.9134208   -4.4979476 
19910000    0.9799842 -9.9034358e-05   0.46452163 0.0069879848            0   0.45753365    1.4516016    1.9161232   -3.1544359 
19915000   0.95164754 -3.7210202e-05   0.48326976  0.002895399            0   0.48037436    1.4096279    1.8928977 -0.012264653 
19920000     1.036546 -4.350555e-05   0.37894071 0.00062627211            0   0.37831444    1.5353838    1.9143245  -0.31315969 
19925000   0.97412685 -1.4373181e-05    0.4789885 0.0017950259            0   0.47719347    1.4429254    1.9219139     1.186007 
19930000    1.0702847 0.00012196765   0.34539478 0.0045151149            0   0.34087967    1.5853592     1.930754    8.1754977 
19935000   0.93809979 1.0328991e-05   0.51848452 0.0051306555            0   0.51335386    1.3895603    1.9080448    2.4368892 
19940000   0.93182718 -6.7670509e-05   0.51731426 0.0078075013            0   0.50950676     1.380269    1.8975833   -1.5671468 
19945000    1.0177538 -4.5289284e-05   0.40039165 0.0010851145            0   0.39930654    1.5075478    1.9079394  -0.41087191 
19950000     1.003295 -4.9063537e-05   0.42928071 0.0015106482            0   0.42777007    1.4861307    1.9154114  -0.59664169 
19955000    1.0272885 -1.6360817e-05   0.37370423 0.0084735085            0   0.36523072    1.5216711    1.8953753    1.0577015 
19960000   0.97450261 5.6089322e-05   0.45724136  0.032742506            0   0.42449886     1.443482    1.9007233    4.7724966 
19965000    1.0012812 6.455061e-05   0.39813984  0.036083635            0   0.36205621    1.4831477    1.8812876    5.1862788 
19970000    1.0181711 -9.6932008e-05   0.37997567  0.027126835            0   0.35284884    1.5081659    1.8881416   -3.0747772 
19975000    1.0003011 -5.7827706e-05   0.39028704  0.062491861            0   0.32779518     1.481696     1.871983   -1.0887955 
19980000   0.92161299 5.6670517e-05   0.48352747  0.032568858            0   0.45095861    1.3651392    1.8486667    4.7501972 
19985000    1.0110264 7.4101134e-05   0.36284402  0.043198065            0   0.31964596    1.4975828    1.8604268    5.6544049 
19990000   0.93913611 -3.9536374e-05    0.4734845  0.026931379            0   0.44655312    1.3910954    1.8645799  -0.15968249 
19995000   0.92984361 4.7766556e-05   0.47542415   0.05415227            0   0.42127188    1.3773308     1.852755    4.2984027 
20000000   0.97967026 5.2608985e-05   0.40953851  0.029048156            0   0.38049036    1.4511366    1.8606751    4.5542551 
Loop time of 189.428 on 1 procs for 20000000 steps with 80 atoms

Performance: 91222.219 tau/day, 105581.272 timesteps/s
99.2% CPU use with 1 MPI tasks x no OpenMP threads

MPI task timing breakdown:
Section |  min time  |  avg time  |  max time  |%varavg| %total
---------------------------------------------------------------
Pair    | 9.4201     | 9.4201     | 9.4201     |   0.0 |  4.97
Bond    | 24.279     | 24.279     | 24.279     |   0.0 | 12.82
Neigh   | 20.404     | 20.404     | 20.404     |   0.0 | 10.77
Comm    | 51.113     | 51.113     | 51.113     |   0.0 | 26.98
Output  | 0.49251    | 0.49251    | 0.49251    |   0.0 |  0.26
Modify  | 76.773     | 76.773     | 76.773     |   0.0 | 40.53
Other   |            | 6.945      |            |       |  3.67

Nlocal:        80.0000 ave          80 max          80 min
Histogram: 1 0 0 0 0 0 0 0 0 0
Nghost:        0.00000 ave           0 max           0 min
Histogram: 1 0 0 0 0 0 0 0 0 0
Neighs:        29.0000 ave          29 max          29 min
Histogram: 1 0 0 0 0 0 0 0 0 0

Total # of neighbors = 29
Ave neighs/atom = 0.3625
Ave special neighs/atom = 5.8500000
Neighbor list builds = 3906
Dangerous builds = 0
write_restart restart.equil
System init for write_restart ...
WARNING: Communication cutoff 1.4200000000000002 is shorter than a bond length based estimate of 1.8. This may lead to errors. (../comm.cpp:667)
#--------------End of Input file ------------------
Total wall time: 0:03:09
