LAMMPS (29 Oct 2020)
###################### polyelectrolyte complexation ######################
clear

#Initialization
#------------------------------------
units				lj
dimension			3
atom_style			full
boundary			p p p

#Atom Definition
#-------------------------------------
read_data			data.complexation
Reading data file ...
  orthogonal box = (-120.00000 -120.00000 -120.00000) to (120.00000 120.00000 120.00000)
  1 by 1 by 1 MPI processor grid
  reading atoms ...
  200 atoms
  scanning bonds ...
  1 = max bonds/atom
  reading bonds ...
  199 bonds
Finding 1-2 1-3 1-4 neighbors ...
  special bond factors lj:    0.0      0.0      0.0     
  special bond factors coul:  0.0      0.0      0.0     
     2 = max # of 1-2 neighbors
     2 = max # of 1-3 neighbors
     4 = max # of 1-4 neighbors
     6 = max # of special neighbors
  special bonds CPU = 0.000 seconds
  read_data CPU = 0.003 seconds

#Force definition
#----------------------------------------------
#Bond definition
bond_style			harmonic
bond_coeff			1 5000 1
#Pair definition
special_bonds	lj 0 1 1
Finding 1-2 1-3 1-4 neighbors ...
  special bond factors lj:    0.0      1.0      1.0     
  special bond factors coul:  0.0      0.0      0.0     
     2 = max # of 1-2 neighbors
     2 = max # of 1-3 neighbors
     4 = max # of 1-4 neighbors
     6 = max # of special neighbors
  special bonds CPU = 0.000 seconds
pair_style		 lj/cut 1.12
pair_modify 		 shift yes
pair_coeff	1 1 1 1 1.12

#Timestep etc
#--------------------------------------------
timestep		1e-05
run_style		verlet
velocity		all	create	1	14

#Fix
#---------------------------------------
group polymers type 1
200 atoms in group polymers
fix 1 all nve
fix 2 all langevin 1	1	10	14
fix 3 polymers recenter INIT INIT INIT units box

#Dump
#------------------------------------------------
compute  1 all gyration
variable  myRg2 equal c_1
variable  i equal step
fix  mythermofile all print 5000 "$i ${myRg2}" file radius_of_gyration.dat screen no

thermo_style		 custom step temp press pe evdwl ecoul ebond ke etotal enthalpy
thermo 	5000
dump	3 all custom 5000 dump.lammpstrj id mol type xu yu zu
run		20000000
Neighbor list info ...
  update every 1 steps, delay 10 steps, check yes
  max neighbors/atom: 2000, page size: 100000
  master list distance cutoff = 1.42
  ghost atom cutoff = 1.42
  binsize = 0.71, bins = 339 339 339
  1 neighbor lists, perpetual/occasional/extra = 1 0 0
  (1) pair lj/cut, perpetual
      attributes: half, newton on
      pair build: half/bin/newton
      stencil: half/bin/3d/newton
      bin: standard
WARNING: Communication cutoff 1.4200000000000002 is shorter than a bond length based estimate of 1.8. This may lead to errors. (../comm.cpp:667)
Per MPI rank memory allocation (min/avg/max) = 165.7 | 165.7 | 165.7 Mbytes
Step Temp Press PotEng E_vdwl E_coul E_bond KinEng TotEng Enthalpy 
       0            1 1.4395255e-05            0            0            0            0       1.4925       1.4925       2.4875 
    5000   0.78339844 -0.00021004957   0.33159462            0            0   0.33159462    1.1692222    1.5008168    -13.01781 
   10000     0.433319 -0.00050864919   0.84666959            0            0   0.84666959    0.6467286    1.4933982   -33.664434 
   15000   0.66534644 -0.00030876519    0.5170769            0            0    0.5170769   0.99302956    1.5101065   -19.831743 
   20000   0.69849168 -0.00022513009   0.46625493            0            0   0.46625493    1.0424988    1.5087538   -14.052238 
   25000   0.50964327 -0.00045684312   0.72915964            0            0   0.72915964   0.76064258    1.4898022   -30.087194 
   30000   0.63206062 -0.00036140414   0.55519722            0            0   0.55519722   0.94335048    1.4985477   -23.481706 
   35000   0.77615006 -0.00015588059   0.35319937            0            0   0.35319937     1.158404    1.5116033   -9.2628628 
   40000   0.67963589 -0.00029880748   0.52451906            0            0   0.52451906    1.0143566    1.5388756   -19.114697 
   45000   0.64243749 -0.00037991969   0.59326011            0            0   0.59326011   0.95883795    1.5520981   -24.707951 
   50000   0.78195776 -0.00025176754   0.38943749            0            0   0.38943749     1.167072    1.5565094   -15.845663 
   55000   0.68024801 -0.0002234573    0.5501177            0            0    0.5501177    1.0152702    1.5653878   -13.879981 
   60000   0.69042218 -0.0002595806   0.54103426            0            0   0.54103426    1.0304551    1.5714894   -16.370722 
   65000   0.76066796 -0.00027166145   0.43784007            0            0   0.43784007    1.1352969     1.573137   -17.204102 
   70000    0.7213001 -0.00028917199   0.51655856            0            0   0.51655856    1.0765404     1.593099   -18.394469 
   75000    0.7240368 -0.00023271958   0.49877357            0            0   0.49877357    1.0806249    1.5793985   -14.506179 
   80000   0.75331211 -0.00016770455   0.45211046            0            0   0.45211046    1.1243183    1.5764288   -10.015309 
   85000   0.74076117 -0.00022843785   0.46857983            0            0   0.46857983     1.105586    1.5741659   -14.215458 
   90000   0.69704568 -0.00025530867   0.51981981            0            0   0.51981981    1.0403407    1.5601605   -16.086775 
   95000   0.80344951 -0.00011645509   0.37463122            0            0   0.37463122    1.1991484    1.5737796   -6.4755961 
  100000   0.81743616 -9.2621242e-05   0.33295277            0            0   0.33295277    1.2200235    1.5529762    -4.849004 
  105000   0.70699893 -0.00021904953    0.4953336            0            0    0.4953336    1.0551959    1.5505295   -13.590174 
  110000   0.77495256 -0.00019108157     0.411436            0            0     0.411436    1.1566167    1.5680527   -11.639505 
  115000   0.83733345 -7.0515895e-05   0.32899834            0            0   0.32899834    1.2497202    1.5787185   -3.2953402 
  120000   0.84657517 -8.9208128e-05   0.32956747            0            0   0.32956747    1.2635134    1.5930809   -4.5729849 
  125000   0.80700181 -0.00019461544   0.39883838            0            0   0.39883838    1.2044502    1.6032886   -11.848531 
  130000    0.8484412 -9.6409661e-05    0.3295589            0            0    0.3295589    1.2662985    1.5958574   -5.0679784 
  135000   0.90376739 -3.4014889e-05   0.26898479            0            0   0.26898479    1.3488728    1.6178576  -0.73325148 
  140000   0.84584082 -0.00011240416   0.36204691            0            0   0.36204691    1.2624174    1.6244643   -6.1449114 
  145000   0.86736892 -0.00010812123    0.3160411            0            0    0.3160411    1.2945481    1.6105892   -5.8627504 
  150000   0.84983916 -5.9102584e-05     0.351608            0            0     0.351608     1.268385     1.619993   -2.4651776 
  155000   0.84731823 -3.5347478e-05   0.34568116            0            0   0.34568116    1.2646225    1.6103036  -0.83291408 
  160000   0.87989479 -8.1800741e-05   0.30477826            0            0   0.30477826     1.313243    1.6180212    -4.036046 
  165000   0.84608834 -7.6953844e-05    0.3596069            0            0    0.3596069    1.2627868    1.6223937   -3.6966559 
  170000   0.88598445 -4.2291573e-05   0.31451585            0            0   0.31451585    1.3223318    1.6368476   -1.2863459 
  175000   0.90919535 -4.2200486e-05   0.29020604            0            0   0.29020604    1.3569741    1.6471801   -1.2697175 
  180000   0.86561992 -5.8059199e-05   0.34114523            0            0   0.34114523    1.2919377     1.633083   -2.3799689 
  185000   0.88764458 -3.0791169e-05   0.31175094 3.7551036e-05            0   0.31171339    1.3248095    1.6365605  -0.49172513 
  190000   0.89803141 -6.2184965e-05   0.27541587 0.00078009878            0   0.27463577    1.3403119    1.6157278    -2.682497 
  195000   0.85038639 -7.6651411e-05   0.32957785 0.00072894305            0   0.32884891    1.2692017    1.5987795    -3.699366 
  200000   0.87338094 -7.1679079e-06   0.29565981 0.00042724922            0   0.29523256     1.303521    1.5991809    1.1037351 
  205000    0.8473352 -4.9890825e-05   0.33450749 3.0511516e-05            0   0.33447697    1.2646478    1.5991553   -1.8492986 
  210000    0.8500668 -4.9730381e-05   0.33827259            0            0   0.33827259    1.2687247    1.6069973   -1.8303666 
  215000   0.86543355 -1.168005e-05   0.29458178            0            0   0.29458178    1.2916596    1.5862413   0.77891627 
  220000   0.85696685 -4.3030381e-06   0.31988608            0            0   0.31988608     1.279023    1.5989091    1.3014831 
  225000   0.88551618 -2.2691298e-05   0.28906464            0            0   0.28906464    1.3216329    1.6106975  0.042275029 
  230000   0.86306858 -7.9491655e-05   0.32329991            0            0   0.32329991    1.2881299    1.6114298   -3.8830334 
  235000   0.88238072 1.9564926e-05   0.31613138            0            0   0.31613138    1.3169532    1.6330846    2.9854123 
  240000   0.87501535 -2.075669e-05    0.3238557            0            0    0.3238557    1.3059604    1.6298161   0.19511371 
  245000   0.85360192 -5.650873e-05   0.35200261            0            0   0.35200261    1.2740009    1.6260035   -2.2798799 
  250000   0.87025169 -1.5864391e-05   0.32620694            0            0   0.32620694    1.2988507    1.6250576   0.52851088 
  255000   0.87459983 8.8671827e-06   0.32513358            0            0   0.32513358    1.3053402    1.6304738    2.2433735 
  260000   0.84794478 -3.8467332e-05   0.35684973            0            0   0.35684973    1.2655576    1.6224073   -1.0364546 
  265000   0.87907477 -2.8838099e-05   0.31381634            0            0   0.31381634    1.3120191    1.6258354  -0.36745395 
  270000   0.87943795 4.2733902e-06   0.32369071            0            0   0.32369071    1.3125611    1.6362519    1.9316286 
  275000   0.86674606 -1.2838956e-05   0.35929849            0            0   0.35929849    1.2936185     1.652917   0.76548837 
  280000   0.88003923 -2.8141187e-05   0.31230637            0            0   0.31230637    1.3134585    1.6257649  -0.31935393 
  285000   0.86689797 9.8806609e-06   0.34482808            0            0   0.34482808    1.2938452    1.6386733    2.3216246 
  290000   0.84200962 -5.6354385e-05   0.38055165            0            0   0.38055165    1.2566994     1.637251   -2.2579641 
  295000   0.90400431 -1.7729604e-05   0.29784861            0            0   0.29784861    1.3492264    1.6470751   0.42160481 
  300000   0.86944444 3.226954e-06   0.36061746            0            0   0.36061746    1.2976458    1.6582633    1.8813103 
  305000   0.85963605 -4.6450001e-06   0.38243677            0            0   0.38243677    1.2830068    1.6654436    1.3443812 
  310000    0.8551272 -4.0723255e-05   0.37140565            0            0   0.37140565    1.2762773     1.647683   -1.1671084 
  315000   0.90096507 1.3301812e-06   0.30450105 0.00026508549            0   0.30423596    1.3446904    1.6491914    1.7411335 
  320000   0.86400247 4.0973299e-06   0.36890858 0.0021292146            0   0.36677936    1.2895237    1.6584323    1.9416397 
  325000   0.84531528 -4.6476636e-05   0.38699093 0.0023329819            0   0.38465794     1.261633     1.648624   -1.5638411 
  330000   0.87912649 -2.5581079e-05   0.33274484 0.00074824937            0   0.33199659    1.3120963    1.6448411  -0.12332306 
  335000   0.86652156 6.8978243e-05   0.36074524 2.8730103e-07            0   0.36074495    1.2932834    1.6540287    6.4218048 
  340000   0.87904522 -5.7528967e-05   0.35565639            0            0   0.35565639     1.311975    1.6676314   -2.3087708 
  345000   0.89120388 -6.1682648e-05    0.3225012            0            0    0.3225012    1.3301218     1.652623   -2.6108816 
  350000   0.84652645 8.8045993e-05   0.38220676            0            0   0.38220676    1.2634407    1.6456475    7.7313865 
  355000    0.8656951 -3.8825357e-05   0.33633285            0            0   0.33633285    1.2920499    1.6283828   -1.0552259 
  360000   0.88372253 -8.449752e-05   0.30213378            0            0   0.30213378    1.3189559    1.6210897   -4.2193789 
  365000    0.8571195 6.2847662e-05   0.32889494            0            0   0.32889494    1.2792509    1.6081458    5.9521762 
  370000   0.83612813 -5.6556114e-05   0.35119062            0            0   0.35119062    1.2479212    1.5991119   -2.3100467 
  375000   0.86853928 -6.5141427e-06   0.30811738            0            0   0.30811738    1.2962949    1.6044122    1.1541547 
  380000   0.85144322  2.50316e-05   0.31951663            0            0   0.31951663     1.270779    1.5902956    3.3204798 
  385000   0.85610274 -4.1077537e-05   0.31745257            0            0   0.31745257    1.2777333    1.5951859   -1.2440934 
  390000   0.83123894 9.5487563e-06   0.35755874            0            0   0.35755874    1.2406241    1.5981829    2.2581929 
  395000   0.85865114 1.2773511e-06   0.31001313            0            0   0.31001313    1.2815368      1.59155    1.6798405 
  400000   0.83750092 -2.0535042e-05   0.34760805            0            0   0.34760805    1.2499701    1.5975782   0.17819607 
  405000   0.82095812 1.6762518e-06   0.36955277            0            0   0.36955277      1.22528    1.5948328    1.7106953 
  410000   0.80995358 3.9675417e-05   0.38558016            0            0   0.38558016    1.2088557    1.5944359    4.3368007 
  415000   0.84938774 -3.5469649e-05   0.33475525            0            0   0.33475525    1.2677112    1.6024664   -0.8491957 
  420000   0.88732675 -1.9537793e-05   0.28699588            0            0   0.28699588    1.3243352    1.6113311   0.26087882 
  425000   0.85090413 2.5748803e-05   0.34072263            0            0   0.34072263    1.2699744    1.6106971    3.3904543 
  430000   0.83987069 -1.4518299e-05   0.38083098            0            0   0.38083098     1.253507     1.634338   0.63083314 
  435000   0.85502208 2.0185019e-05   0.36030712            0            0   0.36030712    1.2761205    1.6364276    3.0316161 
  440000   0.82900816 -6.9287578e-05   0.40420671            0            0   0.40420671    1.2372947    1.6415014    -3.147656 
  445000   0.86501582 4.4139652e-05   0.34305407            0            0   0.34305407    1.2910361    1.6340902     4.685023 
  450000   0.85777206 -4.8852693e-05   0.35736347            0            0   0.35736347    1.2802248    1.6375883   -1.7391099 
  455000   0.85864966 5.5353012e-06   0.36897309            0            0   0.36897309    1.2815346    1.6505077    2.0331077 
  460000   0.85326718 -5.8368208e-05    0.3677671            0            0    0.3677671    1.2735013    1.6412684   -2.3931421 
  465000   0.86128517 2.7598418e-05   0.35018607            0            0   0.35018607    1.2854681    1.6356542    3.5432568 
  470000   0.84107931 -3.3555318e-05   0.37382606            0            0   0.37382606    1.2553109    1.6291369  -0.69020666 
  475000   0.87527051 -1.0038379e-05   0.33829935            0            0   0.33829935    1.3063412    1.6446406   0.95078782 
  480000   0.87365842 -2.4957862e-06   0.35475327            0            0   0.35475327    1.3039352    1.6586885    1.4861797 
  485000   0.87216326 -3.4447561e-05   0.36217664            0            0   0.36217664    1.3017037    1.6638803  -0.71713513 
  490000   0.87453351 -2.0938368e-05   0.37494274            0            0   0.37494274    1.3052413     1.680184   0.23292403 
  495000   0.91031261 4.0851175e-05   0.32054937            0            0   0.32054937    1.3586416    1.6791909    4.5028241 
  500000   0.86450225 -8.6284929e-05   0.38598277            0            0   0.38598277    1.2902696    1.6762524   -4.2877619 
  505000   0.86888816 2.2549959e-05   0.37643184            0            0   0.37643184    1.2968156    1.6732474    3.2319006 
  510000   0.87766297 2.560983e-05   0.37532422            0            0   0.37532422     1.309912    1.6852362    3.4553877 
  515000   0.87646546 -6.3388619e-05   0.36417875            0            0   0.36417875    1.3081247    1.6723035   -2.7091179 
  520000   0.92967541 1.8046341e-05   0.30484599            0            0   0.30484599    1.3875405    1.6923865    2.9397497 
  525000   0.89355792 -2.9303341e-05   0.34365893            0            0   0.34365893    1.3336352    1.6772941  -0.34815277 
  530000    0.8598318 -5.626674e-06    0.3808846            0            0    0.3808846     1.283299    1.6641836    1.2752679 
  535000   0.87084456 -2.6890007e-05    0.3761541            0            0    0.3761541    1.2997355    1.6758896  -0.18274767 
  540000   0.90556707 8.2824061e-06   0.33037315            0            0   0.33037315    1.3515588     1.681932    2.2544119 
  545000   0.89452881 -1.0792096e-05   0.35512192            0            0   0.35512192    1.3350843    1.6902062   0.94425651 
  550000   0.86281966 -3.2707105e-05   0.39771485            0            0   0.39771485    1.2877583    1.6854732  -0.57524193 
  555000   0.87544033 1.8259674e-05   0.38050472            0            0   0.38050472    1.3065947    1.6870994    2.9492081 
  560000   0.88572547 -3.3155492e-05   0.38795016            0            0   0.38795016    1.3219453    1.7098954  -0.58181218 
  565000   0.88834678 -1.0756543e-05   0.38218524            0            0   0.38218524    1.3258576    1.7080428   0.96455052 
  570000   0.86991842 3.0916449e-06   0.42129527            0            0   0.42129527    1.2983532    1.7196485     1.933343 
  575000   0.89042843  2.64956e-06   0.39489965            0            0   0.39489965    1.3289644    1.7238641    1.9070017 
  580000   0.89189861 -1.7215425e-05   0.38712823            0            0   0.38712823    1.3311587    1.7182869   0.52835673 
  585000   0.88722226 2.276347e-05   0.39248523            0            0   0.39248523    1.3241792    1.7166645    3.2900755 
  590000   0.84968047 -5.8410035e-05   0.46969495            0            0   0.46969495    1.2681481    1.7378431   -2.2994585 
  595000     0.911203 3.429719e-05   0.37603015            0            0   0.37603015    1.3599705    1.7360006    4.1066224 
  600000    0.9170819 -4.6348627e-05   0.35255722            0            0   0.35255722    1.3687447    1.7213019   -1.4823152 
  605000   0.90185669 -3.7577514e-06   0.40245497            0            0   0.40245497    1.3460211    1.7484761    1.4887403 
  610000   0.92924626 -2.4212929e-05   0.34906599            0            0   0.34906599       1.3869     1.735966  0.062368397 
  615000   0.96746255 2.427144e-06   0.33095879            0            0   0.33095879    1.4439379    1.7748967    1.9426608 
  620000    0.9419932 -2.1063769e-05   0.36320131            0            0   0.36320131    1.4059249    1.7691262   0.31319846 
  625000   0.92868259 -4.4667906e-06   0.37727808            0            0   0.37727808    1.3860588    1.7633368    1.4545923 
  630000    0.9543329 2.3579384e-06   0.34711808            0            0   0.34711808    1.4243418    1.7714599    1.9344406 
  635000   0.93474012 -5.2544132e-05   0.37169082            0            0   0.37169082    1.3950996    1.7667904     -1.86506 
  640000    0.9412592  4.09288e-05   0.34924129            0            0   0.34924129    1.4048294    1.7540706    4.5830693 
  645000   0.91509254 -6.2425475e-05   0.38964074            0            0   0.38964074    1.3657756    1.7554164   -2.5594325 
  650000   0.90694508 -3.7186007e-06   0.36981617            0            0   0.36981617    1.3536155    1.7234317     1.466402 
  655000   0.92058564 8.8480027e-06   0.36965404            0            0   0.36965404    1.3739741    1.7436281     2.355202 
  660000   0.94652401 -4.1430033e-05    0.3448864            0            0    0.3448864    1.4126871    1.7575735   -1.1060704 
  665000   0.92474364 2.9123572e-05   0.37622645            0            0   0.37622645    1.3801799    1.7564063    3.7694276 
  670000   0.93672168 -5.1634176e-05   0.35165908            0            0   0.35165908    1.3980571    1.7497162    -1.819238 
  675000   0.92342204 1.6178263e-05   0.38169162            0            0   0.38169162    1.3782074     1.759899    2.8781405 
  680000     0.867823 8.2524207e-06   0.45617477            0            0   0.45617477    1.2952258    1.7514006    2.3218079 
  685000   0.92438703 -5.0598188e-05   0.37741838            0            0   0.37741838    1.3796476     1.757066   -1.7402807 
  690000   0.92861802 1.6371231e-05   0.35034297            0            0   0.35034297    1.3859624    1.7363054    2.8678848 
  695000   0.88066586 -2.0335619e-05   0.41150564            0            0   0.41150564    1.3143938    1.7258994   0.32030144 
  700000    0.9169401 2.1054319e-06   0.37858421            0            0   0.37858421    1.3685331    1.7471173    1.8926448 
  705000   0.90750816 3.9730279e-06   0.40381788            0            0   0.40381788    1.3544559    1.7582738    2.0328895 
  710000    0.8982746 -1.7499079e-06   0.41306829            0            0   0.41306829    1.3406748    1.7537431    1.6327895 
  715000   0.90096122 -1.9446416e-06     0.409542            0            0     0.409542    1.3446846    1.7542266     1.619813 
  720000   0.92774315 -3.1455963e-05   0.38237532            0            0   0.38237532    1.3846566     1.767032  -0.40720418 
  725000   0.93209872 5.6778068e-06   0.38076684            0            0   0.38076684    1.3911573    1.7719242    2.1643742 
  730000   0.95352431 6.356127e-06   0.36235584            0            0   0.36235584     1.423135    1.7854909    2.2248264 
  735000   0.95586289 -3.8640819e-05   0.37304879            0            0   0.37304879    1.4266254    1.7996742  -0.87117928 
  740000   0.92017403 3.033529e-05   0.42611286            0            0   0.42611286    1.3733597    1.7994726    3.8962478 
  745000   0.94080152 -1.1686359e-05   0.39577022            0            0   0.39577022    1.4041463    1.7999165   0.99215536 
  750000   0.97266052 -2.4665542e-05   0.35972065            0            0   0.35972065    1.4516958    1.8114165   0.10653418 
  755000   0.94549351 -9.5234078e-06   0.40768294            0            0   0.40768294    1.4111491     1.818832    1.1605741 
  760000   0.96857447 2.843776e-05   0.38401811            0            0   0.38401811    1.4455974    1.8296155    3.7952335 
  765000   0.95909415 -8.2943036e-05    0.4051366            0            0    0.4051366     1.431448    1.8365846    -3.896438 
  770000   0.94252357 5.4138877e-05    0.4094105            0            0    0.4094105    1.4067164    1.8161269    5.5582061 
  775000   0.95545737 -5.9299506e-05   0.40015579            0            0   0.40015579    1.4260201    1.8261759   -2.2726059 
  780000   0.98621117 -1.8119715e-05   0.36657144            0            0   0.36657144    1.4719202    1.8384916   0.58605689 
  785000   0.95413786 -1.1490968e-05   0.42721708            0            0   0.42721708    1.4240508    1.8512678    1.0570121 
  790000   0.92367865 -4.1061854e-05   0.46973949            0            0   0.46973949    1.3785904    1.8483299  -0.98986551 
  795000    0.9847033 4.5552682e-06   0.39097196            0            0   0.39097196    1.4696697    1.8606416    2.1755018 
  800000    1.0348289 -4.0887066e-05   0.34189656            0            0   0.34189656    1.5444821    1.8863787  -0.93973533 
  805000    1.0222781 -3.4898632e-05   0.37796195            0            0   0.37796195    1.5257501    1.9037121  -0.50848142 
  810000    1.0137545 6.3565391e-05   0.38706574            0            0   0.38706574    1.5130286    1.9000943    6.2937342 
  815000   0.96066731 -0.00013040147   0.45866587 0.00014048278            0   0.45852539     1.433796    1.8924618   -7.1208879 
  820000   0.97344279 7.6408434e-05   0.44916072  0.000555999            0   0.44860472    1.4528634    1.9020241     7.183375 
  825000    1.0188892 -7.6320533e-05   0.39032465 0.00051235999            0   0.38981229    1.5206921    1.9110167   -3.3642585 
  830000    1.0438437 2.509272e-05   0.35611361 4.1831853e-06            0   0.35610942    1.5579367    1.9140503    3.6484591 
  835000    0.9890292 -2.572459e-05   0.42926812            0            0   0.42926812    1.4761261    1.9053942   0.12731054 
  840000   0.98155957 -2.1356603e-05   0.42725645            0            0   0.42725645    1.4649777    1.8922341   0.41606568 
  845000    1.0101562 9.7938427e-06   0.39973704            0            0   0.39973704    1.5076581    1.9073952    2.5843456 
  850000   0.99087932 2.1755185e-05    0.4226098            0            0    0.4226098    1.4788874    1.9014972    3.4052156 
  855000    1.0018128 -3.6661064e-05   0.41563886            0            0   0.41563886    1.4952057    1.9108445  -0.62316823 
  860000   0.99775991 3.5952392e-05   0.41355826            0            0   0.41355826    1.4891567    1.9027149    4.3877442 
  865000   0.97646631 -6.2535646e-05   0.42914601            0            0   0.42914601     1.457376     1.886522   -2.4359418 
  870000   0.94324222 9.3117645e-06   0.47449429            0            0   0.47449429     1.407789    1.8822833    2.5259125 
  875000   0.96421151 -3.2689056e-05   0.43157424 0.00099654217            0    0.4305777    1.4390857    1.8706599  -0.38880761 
  880000     1.003481 3.087444e-05   0.37916419 0.0052204877            0    0.3739437    1.4976954    1.8768596    4.0109009 
  885000    1.0176531 -3.2243946e-05   0.36253944 0.0034729781            0   0.35906646    1.5188472    1.8813867   -0.3473149 
  890000    1.0180435 1.4963912e-05   0.37555504 0.0015005617            0   0.37405448      1.51943     1.894985    2.9292906 
  895000    0.9796019 -2.4742541e-05   0.42781741 2.3329474e-06            0   0.42781508    1.4620558    1.8898733   0.17966879 
  900000   0.99318784 -8.0498153e-06   0.39018879            0            0   0.39018879    1.4823328    1.8725216    1.3161184 
  905000     0.991534 2.9043373e-05   0.39369412            0            0   0.39369412    1.4798645    1.8735586    3.8810365 
  910000   0.99348056 -3.8954936e-05   0.40175238            0            0   0.40175238    1.4827697    1.8845221  -0.80804304 
  915000   0.99076803 2.1945435e-05   0.40315085            0            0   0.40315085    1.4787213    1.8818721    3.3987406 
  920000   0.96756452 -3.2905603e-05   0.45431988            0            0   0.45431988      1.44409    1.8984099  -0.37602536 
  925000   0.97886483 8.2507604e-06   0.43611959            0            0   0.43611959    1.4609558    1.8970753    2.4673679 
  930000    1.0215327 -3.2184109e-05   0.38591917 4.0238679e-05            0   0.38587893    1.5246375    1.9105567  -0.31400896 
  935000   0.98660517 -2.9577998e-06   0.44857319 0.00086499597            0    0.4477082    1.4725082    1.9210814    1.7166383 
  940000   0.98334501 -2.2860761e-05   0.42312022  0.001748224            0   0.42137199    1.4676424    1.8907626   0.31062684 
  945000    1.0245802 4.6226883e-06    0.3697933 0.00059869096            0   0.36919461    1.5291859    1.8989792    2.2184994 
  950000    1.0038292 -8.7905606e-06    0.3908014 0.00034341743            0   0.39045798    1.4982151    1.8890165     1.281413 
  955000    1.0128907 -1.5346447e-05   0.38737584 0.00056674431            0    0.3868091    1.5117394    1.8991152   0.83836878 
  960000   0.98759123 -3.0741063e-05   0.42195627 0.0012418901            0   0.42071438    1.4739799    1.8959362  -0.22888606 
  965000   0.99399183 -1.1015974e-05   0.42056499 0.0080566032            0   0.41250838    1.4835328    1.9040978    1.1426737 
  970000    1.0220125 -1.7768387e-05   0.38239625 0.0039206357            0   0.37847562    1.5253537      1.90775   0.67959908 
  975000    1.0139472 1.5134469e-05   0.37784144 0.0022616964            0   0.37557974    1.5133162    1.8911577    2.9372521 
  980000   0.95575728 1.5740961e-05   0.45092336 0.0036451548            0    0.4472782    1.4264677    1.8773911    2.9654063 
  985000   0.97826043 -3.4364729e-05   0.42429985 0.0010354855            0   0.42326436    1.4600537    1.8843535   -0.4909365 
  990000    1.0010813 1.0009425e-05   0.39811327 0.00029403518            0   0.39781924    1.4941139    1.8922272    2.5840786 
  995000   0.93556398 -2.8873328e-05   0.47979226 0.0012735259            0   0.47851873    1.3963292    1.8761215  -0.11960296 
 1000000   0.93330138 1.9240257e-05   0.48538193 0.0055958032            0   0.47978613    1.3929523    1.8783342    3.2082208 
 1005000   0.97994823 -8.0833153e-05   0.40362478 0.0092462206            0   0.39437856    1.4625727    1.8661975     -3.72099 
 1010000   0.98206521 5.7557501e-05   0.40973387 0.0045194382            0   0.40521443    1.4657323    1.8754662    5.8538406 
 1015000   0.97917115 -1.4683575e-05   0.41478369 0.00046206372            0   0.41432163    1.4614129    1.8761966   0.86126791 
 1020000   0.98140561 1.6981617e-05   0.42056277 0.0048919103            0   0.41567086    1.4647479    1.8853106      3.05908 
 1025000   0.97860924 -5.2695961e-05   0.41307846 0.0065120489            0   0.40656641    1.4605743    1.8736527   -1.7686921 
 1030000    0.9760572 1.2352224e-05   0.43250458   0.00173408            0    0.4307705    1.4567654      1.88927    2.7430557 
 1035000    1.0065665 1.9579463e-05   0.38006343 0.00087091197            0   0.37919252    1.5023005    1.8823639    3.2356964 
 1040000   0.99492603 -4.2526788e-05   0.40430823 0.0002625609            0   0.40404567    1.4849271    1.8892353   -1.0502162 
 1045000   0.96477704 2.0639171e-05   0.45088047 8.6141973e-05            0   0.45079432    1.4399297    1.8908102    3.3173897 
 1050000   0.98514567 -2.3799359e-05   0.43968596 0.00038777011            0   0.43929819    1.4703299    1.9100159   0.26500418 
 1055000    1.0003576 -8.1942199e-05   0.41942764 0.0017856703            0   0.41764197    1.4930338    1.9124614   -3.7513834 
 1060000   0.99585464 2.8244289e-05   0.42908801  0.001624187            0   0.42746382     1.486313    1.9154011    3.8676463 
 1065000     1.015289 -2.8912447e-05   0.42218734 0.0051944691            0   0.41699287    1.5153188    1.9375062 -0.060922144 
 1070000   0.96772768 0.00011549848   0.47630876 0.0093829412            0   0.46692582    1.4443336    1.9206423     9.903897 
 1075000   0.95023764 -7.4673222e-05   0.50536448 0.0036087002            0   0.50175578    1.4182297    1.9235942   -3.2378189 
 1080000    1.0099722 7.6233928e-05   0.38449391 0.0031389884            0   0.38135492    1.5073835    1.8918774    7.1611665 
 1085000   0.94800016 -8.5501365e-05   0.47772668 0.0055358915            0   0.47219079    1.4148902    1.8926169   -4.0172375 
 1090000   0.96343795 6.7670013e-05   0.45954085 0.0023430551            0    0.4571978    1.4379311     1.897472    6.5748233 
 1095000    1.0072147 -7.3175836e-05   0.40229802 0.0021891803            0   0.40010884    1.5032679    1.9055659   -3.1523479 
 1100000   0.99387118 5.5228843e-05   0.41535091 0.0061581646            0   0.40919274    1.4833527    1.8987036    5.7161213 
 1105000    1.0102502 -4.7167128e-05   0.38841039 0.0032026746            0   0.38520772    1.5077984    1.8962088   -1.3639831 
 1110000   0.97093166 -2.127835e-05   0.45765472 0.00089188835            0   0.45676283    1.4491155    1.9067702   0.43601064 
 1115000   0.94975523 2.6321807e-05   0.47125644 0.0022968792            0   0.46895956    1.4175097    1.8887661    3.7081295 
 1120000   0.96860055 -4.4067127e-05   0.44357684 0.0027889007            0   0.44078794    1.4456363    1.8892132   -1.1567066 
 1125000   0.98184719 1.8832829e-05   0.44398258 0.00067758278            0   0.44330499    1.4654069    1.9093895    3.2111147 
 1130000   0.97582091 1.4477727e-05   0.46987414 0.00036777942            0   0.46950636    1.4564127    1.9262868    2.9269873 
 1135000   0.97877093 8.0480475e-06   0.46473424 0.00059356034            0   0.46414068    1.4608156    1.9255499    2.4818309 
 1140000    1.0134316 8.0167976e-06   0.41414026 0.00023351892            0   0.41390674    1.5125467    1.9266869     2.480808 
 1145000     1.045582 -2.5351994e-05   0.37332509 0.00016838139            0   0.37315671    1.5605311    1.9338562   0.18152638 
 1150000    1.0660637 1.9571051e-06   0.34098714 0.0018055681            0   0.33918157    1.5911001    1.9320873    2.0673624 
 1155000     1.003528 -1.2544047e-06   0.41867079 0.0020494871            0    0.4166213    1.4977655    1.9164363    1.8297319 
 1160000    1.0255801 -5.7236927e-05    0.3869949 0.0014598833            0   0.38553502    1.5306783    1.9176732   -2.0385432 
 1165000    1.0170983 2.3402875e-05   0.40045299 3.8147051e-05            0   0.40041485    1.5180192    1.9184722    3.5360789 
 1170000   0.96277286 -1.1074922e-05   0.47727301            0            0   0.47727301    1.4369385    1.9142115    1.1487129 
 1175000   0.95383503 -1.7563679e-06   0.48240505            0            0   0.48240505    1.4235988    1.9060038    1.7846037 
 1180000   0.97560996 -3.3160335e-05   0.43084504 2.826774e-06            0   0.43084221    1.4560979    1.8869429  -0.40509944 
 1185000   0.99722702 -2.2474575e-05   0.38212169 0.00048333387            0   0.38163836    1.4883613     1.870483   0.31704041 
 1190000   0.95943354 -1.0938926e-05   0.42145941 0.0028118952            0   0.41864751    1.4319546     1.853414    1.0973154 
 1195000    0.9449803 -6.6250135e-06   0.42760529 0.0038005123            0   0.42380478    1.4103831    1.8379884    1.3800675 
 1200000   0.95845461 -3.6875863e-06   0.41976162 0.0038205536            0   0.41594107    1.4304935    1.8502551    1.5953692 
 1205000   0.95877281 -4.0767463e-05   0.41375356 0.00073237596            0   0.41302118    1.4309684     1.844722  -0.97312509 
 1210000   0.95534806 -5.1180698e-06   0.42861161 0.00028047198            0   0.42833113     1.425857    1.8544686    1.5007076 
 1215000   0.92658209 -3.4545813e-05   0.50483623 0.0014212043            0   0.50341502    1.3829238      1.88776   -0.5000466 
 1220000   0.95707415 3.9038235e-05   0.46067578 0.0041751013            0   0.45650068    1.4284332    1.8891089    4.5874317 
 1225000   0.97215063 -4.7506459e-05    0.4478023 0.0013621441            0   0.44644016    1.4509348    1.8987371   -1.3849094 
 1230000   0.99559094 4.0420684e-06   0.42190556 5.3386417e-05            0   0.42185217    1.4859195     1.907825    2.1872128 
 1235000   0.99852096 -6.60926e-05   0.40094878 0.00086804705            0   0.40008073    1.4902925    1.8912413   -2.6770792 
 1240000   0.96317164 6.8895292e-05   0.42797341 0.0081300216            0   0.41984339    1.4375337    1.8655071    6.6275497 
 1245000   0.96343847 -3.05161e-05   0.42149388 0.0065019531            0   0.41499193    1.4379319    1.8594258  -0.24984702 
 1250000    1.0080402 -1.6278112e-05   0.37108915 0.0011923121            0   0.36989684       1.5045    1.8755892   0.75044608 
 1255000   0.97470124 -1.7587133e-05   0.41185659 0.0053762586            0   0.40648033    1.4547416    1.8665982   0.65097556 
 1260000   0.93921929 -3.7362103e-05   0.46281263 0.0080230525            0   0.45478957    1.4017848    1.8645974  -0.71787118 
 1265000   0.97102792 -3.2562354e-06   0.41825393 0.0040648811            0   0.41418905    1.4492592    1.8675131    1.6424421 
 1270000   0.98586757 -8.1467888e-06    0.4198997 0.0040272857            0   0.41587241    1.4714073     1.891307     1.328201 
 1275000   0.96582123 5.826907e-07   0.46606859 0.0031298635            0   0.46293873    1.4414882    1.9075568    1.9478324 
 1280000   0.98942091 -1.1957836e-05   0.43772454 0.0062801087            0   0.43144443    1.4767107    1.9144352    1.0879096 
 1285000   0.95860425 -4.4862944e-05   0.47113668 0.0037228664            0   0.46741382    1.4307168    1.9018535   -1.1990732 
 1290000   0.98859237 -4.082442e-06   0.44577767 0.00024988404            0   0.44552779    1.4754741    1.9212518    1.6390734 
 1295000   0.99908022 7.9073281e-06   0.44101796 0.00054671596            0   0.44047125    1.4911272    1.9321452    2.4786997 
 1300000    1.0104138 -1.5624446e-05   0.42945544  0.001349347            0   0.42810609    1.5080426    1.9374981   0.85753639 
 1305000    1.0534731 -3.0843876e-05   0.36949415  0.001768142            0   0.36772601    1.5723086    1.9418027  -0.19012599 
 1310000    1.0482683 3.6423495e-06   0.39559648 0.00086904594            0   0.39472744    1.5645404    1.9601369    2.2118961 
 1315000    1.0136583 -6.4598006e-05   0.44457309 5.8319837e-05            0   0.44451477     1.512885    1.9574581   -2.5075561 
 1320000    1.0574526 4.0593529e-05   0.38698806 0.0019949145            0   0.38499314     1.578248     1.965236    4.7710608 
 1325000    1.0370673 -2.9759488e-05   0.41719762 0.0047438819            0   0.41245374     1.547823    1.9650206 -0.091955241 
 1330000    1.0360123 -1.4176073e-05   0.41688873   0.00385485            0   0.41303388    1.5462484    1.9631372   0.98328696 
 1335000    1.0667972 1.7850226e-06   0.38059581 0.0013480317            0   0.37924777    1.5921948    1.9727906    2.0961714 
 1340000    1.0138928 1.5213907e-05   0.47413205 0.0015339201            0   0.47259813     1.513235    1.9873671    3.0389523 
 1345000    1.0698969 -6.4067421e-05    0.3842276 0.0030695827            0   0.38115802    1.5968211    1.9810488   -2.4472914 
 1350000    1.0321212 5.9753428e-05   0.43730464 0.0036663372            0    0.4336383    1.5404408    1.9777455    6.1079024 
 1355000    1.0246112 -5.2585219e-05   0.42896724  0.001757463            0   0.42720978    1.5292322    1.9581994   -1.6764909 
 1360000    1.0433498 1.8855046e-05   0.39438133 0.0015637731            0   0.39281756    1.5571995    1.9515809    3.2548417 
 1365000    1.0245407 3.9529693e-05   0.41991153 0.0013019322            0    0.4186096     1.529127    1.9490385    4.6813309 
 1370000    1.0438451 -3.9298815e-05   0.38304287 0.00072913213            0   0.38231374    1.5579389    1.9409817  -0.77535237 
 1375000    1.0085896 2.9982375e-05   0.43265283 0.00054172965            0    0.4321111      1.50532    1.9379728    4.0103546 
 1380000   0.99374942 -5.1401311e-05    0.4530701 0.00052330723            0   0.45254679     1.483171    1.9362411   -1.6166175 
 1385000   0.99828246 4.9087146e-05   0.46725813 0.00037117755            0   0.46688696    1.4899366    1.9571947    5.3500982 
 1390000    1.0106701 -5.3776843e-05   0.44526714 9.9998447e-05            0   0.44516714    1.5084251    1.9536922   -1.7633632 
 1395000    0.9799594 6.1631097e-05   0.47864912 0.0033604017            0   0.47528872    1.4625894    1.9412385      6.20118 
 1400000    1.0003763 -3.9904276e-05   0.45748144  0.014409194            0   0.44307224    1.4930616     1.950543   -0.8076405 
 1405000   0.96865211 -7.7945315e-06   0.48309898  0.010287304            0   0.47281167    1.4457133    1.9288123    1.3900542 
 1410000   0.99965346 -1.3252456e-05   0.42412564 0.00095226586            0   0.42317337    1.4919828    1.9161084    1.0000987 
 1415000   0.97025615 9.5278315e-05   0.47416185 0.0010592533            0    0.4731026    1.4481073    1.9222692    8.5079063 
 1420000   0.95669679 -5.9476768e-05   0.50309027 0.0071794538            0   0.49591081      1.42787    1.9309602    -2.180074 
 1425000   0.98514629 3.2614366e-05   0.43641284 0.0049343764            0   0.43147847    1.4703308    1.9067437    4.1610486 
 1430000   0.99075437 -4.8639308e-05   0.43342999 0.0053167729            0   0.42811321    1.4787009    1.9121309   -1.4498181 
 1435000    1.0145147 3.8313675e-05   0.40899501 0.0090933668            0   0.39990164    1.5141631    1.9231582    4.5713994 
 1440000   0.99562399 -2.4584978e-05   0.45049288 0.0033895273            0   0.44710335    1.4859688    1.9364617   0.23714799 
 1445000    1.0385113 -1.1022581e-06   0.39824276 0.00060783323            0   0.39763492    1.5499782    1.9482209    1.8720328 
 1450000    1.0253562 -3.8776418e-05   0.42605581 0.0011918265            0   0.42486399    1.5303441    1.9563999  -0.72382611 
 1455000    1.0213568 -2.1549638e-06   0.44329736 0.0038864842            0   0.43941088     1.524375    1.9676724    1.8187213 
 1460000   0.99629497 9.2047605e-06   0.48427895 0.0033643338            0   0.48091462    1.4869702    1.9712492    2.6074822 
 1465000    1.0184963 -8.4445333e-05   0.44984575  0.009668843            0    0.4401769    1.5201057    1.9699514     -3.86691 
 1470000    1.0488495 1.5051077e-06     0.417968 0.0069360692            0   0.41103193    1.5654079    1.9833759    2.0874089 
 1475000    1.0219909 -9.4311115e-06   0.46138137 0.0018834095            0   0.45949796    1.5253214    1.9867027    1.3348243 
 1480000    1.0251422 2.0156083e-05   0.46363131 0.0029261875            0   0.46070512    1.5300247    1.9936561    3.3868445 
 1485000    1.0022328 -3.1471122e-05   0.48889226 0.0064675038            0   0.48242475    1.4958324    1.9847247  -0.19055926 
 1490000    1.0067441 5.9057642e-05   0.48616785 0.0026725497            0    0.4834953    1.5025655    1.9887334    6.0707976 
 1495000    1.0439725 -6.8247563e-05   0.42761995 0.0027651293            0   0.42485482    1.5581289    1.9857489   -2.7315226 
 1500000    1.0607092 6.0361322e-05    0.4069478 0.0052078436            0   0.40173996    1.5831084    1.9900562    6.1622308 
 1505000    1.0088827 -8.5376893e-05   0.48567588 0.0078529153            0   0.47782297    1.5057574    1.9914332   -3.9098176 
 1510000    1.0739087 -2.0706315e-05   0.37492306 0.0017871074            0   0.37313595    1.6028087    1.9777318   0.54651125 
 1515000    1.0223878 -3.6876758e-05   0.44393244 0.00084493523            0    0.4430875    1.5259138    1.9698463   -0.5790752 
 1520000    1.0577695 4.0685759e-05   0.38554446 0.0012843005            0   0.38426016     1.578721    1.9642655    4.7764652 
 1525000    1.0278799 1.0212139e-05     0.450774 0.0043793318            0   0.44639467    1.5341108    1.9848848    2.6907478 
 1530000   0.99241018 1.512586e-05   0.48584308 0.0039102321            0   0.48193284    1.4811722    1.9670153    3.0125147 
 1535000    1.0471601 2.6337512e-05   0.43928681  0.004473218            0   0.43481359    1.5628865    2.0021733    3.8226221 
 1540000     1.026559 -5.4415778e-05   0.47645884 0.0082729118            0   0.46818593    1.5321393    2.0085981   -1.7526204 
 1545000    1.0364058 5.7681531e-05   0.44760506 0.0057913769            0   0.44181369    1.5468357    1.9944408    5.9813882 
 1550000    1.0384892 -4.0034725e-06    0.4578801 0.0030061623            0   0.45487394    1.5499452    2.0078253    1.7311052 
 1555000    1.0778168 3.2389441e-05   0.39807237 0.0029147416            0   0.39515763    1.6086416     2.006714    4.2454721 
 1560000    1.0561133 -4.7972344e-05   0.40169472 0.0066697321            0   0.39502498    1.5762491    1.9779438   -1.3379046 
 1565000    1.0355489 1.147584e-05   0.43057777 0.0082106914            0   0.42236708    1.5455567    1.9761345    2.7693446 
 1570000    1.0159547 -4.5754493e-05   0.46417288 0.0019846933            0   0.46218818    1.5163124    1.9804853   -1.1820653 
 1575000    1.0273886 1.6507834e-05     0.449654 0.0033462248            0   0.44630778    1.5333775    1.9830315     3.124053 
 1580000   0.99171585 -9.2750103e-06   0.50716849 0.0077025783            0   0.49946591    1.4801359    1.9873044    1.3462157 
 1585000    1.0104867 1.7012085e-05   0.48824231 0.0079000759            0   0.48034224    1.5081514    1.9963937    3.1722691 
 1590000    1.0145905 -3.9764965e-05   0.49083254 0.0038703968            0   0.48696214    1.5142763    2.0051088  -0.74344554 
 1595000    1.0354061 4.8196188e-06   0.45499067 0.0030850082            0   0.45190566    1.5453437    2.0003343    2.3334664 
 1600000    1.0551252 -1.4661878e-05   0.41195707 0.0020822054            0   0.40987486    1.5747744    1.9867315   0.97330248 
 1605000    1.0633479 -3.382675e-05   0.41252559 0.0024938574            0   0.41003174    1.5870467    1.9995723  -0.33853266 
 1610000    1.0520247 -2.2747689e-05   0.42352679 0.0026951025            0   0.42083169    1.5701468    1.9936736   0.42135336 
 1615000    1.0616109 -2.8972399e-05   0.41825986  0.014097425            0   0.40416243    1.5844543    2.0027142 0.00014191726 
 1620000    1.0462823 2.4651402e-05    0.4562512 0.0088866123            0   0.44736458    1.5615763    2.0178275    3.7217325 
 1625000    1.0222638 1.6054098e-05   0.49697039 0.0025028942            0   0.49446749    1.5257287    2.0226991    3.1323584 
 1630000    1.0588228 3.7867838e-05   0.43010708 0.0011059128            0   0.42900117     1.580293    2.0104001     4.627825 
 1635000    1.0458627 8.4221144e-06   0.45118013 0.00028520274            0   0.45089493      1.56095    2.0121301    2.5942667 
 1640000    1.0163073 7.3819097e-06   0.47227402 4.8728567e-05            0   0.47222529    1.5168387    1.9891127    2.4993503 
 1645000    1.0453467 3.3620044e-05   0.44599931 0.0019565752            0   0.44404274      1.56018    2.0061793    4.3299967 
 1650000    1.0530323 -1.1576085e-05   0.41692239 0.0043427067            0   0.41257968    1.5716507    1.9885731    1.1884341 
 1655000    1.0294679 -4.794139e-05   0.46407239  0.002610866            0   0.46146152    1.5364809    2.0005532   -1.3131556 
 1660000    1.0269078 -3.2898013e-05   0.45168854  0.008492599            0   0.44319595    1.5326599    1.9843484  -0.28956225 
 1665000    1.0276626 -1.0980717e-05   0.46003975 0.0036401278            0   0.45639962    1.5337865    1.9938262     1.234839 
 1670000    1.0388452 -1.1886595e-05   0.43316627 0.0080723983            0   0.42509387    1.5504765    1.9836428    1.1620413 
 1675000   0.99887304 -4.584519e-05   0.47386579 0.0055832282            0   0.46828256     1.490818    1.9646838   -1.2041357 
 1680000    1.0130571 2.6187597e-05   0.46493766  0.010223652            0   0.45471401    1.5119877    1.9769254    3.7870121 
 1685000   0.95223042 -3.4296755e-05   0.54197007 0.0051779834            0   0.53679209    1.4212039     1.963174  -0.40741776 
 1690000    0.9663318 4.3042852e-05   0.50262725 0.00066747345            0   0.50195978    1.4422502    1.9448775    4.9199994 
 1695000   0.96283493 -8.7570343e-06   0.51757358 0.0017135848            0   0.51585999    1.4370311    1.9546047    1.3493185 
 1700000   0.99418254 2.0506829e-05   0.48100751 0.0029742931            0   0.47803321    1.4838174    1.9648249     3.382257 
 1705000    1.0076143 1.6998264e-05   0.46356047 0.0042546157            0   0.45930585    1.5038643    1.9674248    3.1423447 
 1710000   0.99140117 1.9663292e-06   0.47005509 0.0088780245            0   0.46117706    1.4796662    1.9497213     2.085634 
 1715000   0.95339675 4.5398886e-05   0.54055597  0.014482072            0    0.5260739    1.4229447    1.9635006    5.1014717 
 1720000    1.0101922 -5.799737e-05   0.46907011 0.0029787079            0    0.4660914    1.5077118    1.9767819   -2.0319963 
 1725000    1.0091718 7.9514889e-06   0.46921562 0.00075592041            0    0.4684597    1.5061889    1.9754045    2.5250115 
 1730000    1.0179443 -6.9769571e-06   0.45518925 0.00069464559            0    0.4544946    1.5192819    1.9744711    1.4922238 
 1735000     1.020582 1.1365364e-05   0.44576733 0.0016154063            0   0.44415192    1.5232186    1.9689859    2.7545599 
 1740000   0.98376115 -4.3664231e-05   0.50714365  0.003535563            0   0.50360809    1.4682635    1.9754072   -1.0426645 
 1745000     1.006679 5.1475525e-05   0.47890101 0.0080237644            0   0.47087725    1.5024685    1.9813695    5.5393578 
 1750000   0.98762101 2.1771852e-06   0.51665847  0.011113019            0   0.50554545    1.4740244    1.9906828    2.1411699 
 1755000   0.96777783 6.7672391e-05   0.53963582  0.004094147            0   0.53554167    1.4444084    1.9840442    6.6615599 
 1760000    1.0121929 -8.216781e-05   0.46596024 0.0013392283            0   0.46462101     1.510698    1.9766582   -3.7027808 
 1765000    1.0172732 2.0521584e-05   0.45324628 0.00063890156            0   0.45260738    1.5182802    1.9715265    3.3899784 
 1770000   0.99797907 -2.2315572e-05   0.48120276 0.0079802575            0    0.4732225    1.4894838    1.9706865   0.42823421 
 1775000    0.9948264 7.1325953e-05   0.48688202  0.010187626            0   0.47669439    1.4847784    1.9716604    6.9017103 
 1780000   0.98451962 -3.6451971e-05   0.51092153 0.0087036928            0   0.50221784    1.4693955    1.9803171  -0.53924319 
 1785000    1.0058027 4.9051637e-05   0.46455414  0.007330582            0   0.45722356    1.5011605    1.9657147    5.3561638 
 1790000   0.98752439 1.1274643e-05   0.50064029  0.002945466            0   0.49769483    1.4738802    1.9745204    2.7538238 
 1795000    1.0249823 -2.3339539e-05   0.46729329 0.00015017532            0   0.46714311    1.5297862    1.9970794   0.38385049 
 1800000   0.99968346 1.4330582e-05   0.49597888            0            0   0.49597888    1.4920276    1.9880064    2.9785363 
 1805000    1.0012617 3.3205033e-06   0.48828522 4.9204756e-05            0   0.48823601    1.4943831    1.9826683    2.2121815 
 1810000    1.0354187 -2.3500547e-05   0.43126973 0.00096513857            0    0.4303046    1.5453625    1.9766322    0.3522744 
 1815000    1.0149391 8.0762361e-06   0.44521886 0.0048360196            0   0.44038284    1.5147966    1.9600155    2.5182449 
 1820000    1.0173039 -1.3182105e-05   0.43572537  0.010003198            0   0.42572217    1.5183261    1.9540515    1.0429044 
 1825000   0.95030057 -1.750641e-05   0.52058337  0.018011606            0   0.50257176    1.4183236     1.938907   0.72886389 
 1830000   0.97105403 2.3375599e-05   0.48450435    0.0108676            0   0.47363675    1.4492981    1.9338025    3.5495239 
 1835000   0.95621605 -2.2835544e-07   0.49483848  0.010684174            0   0.48415431    1.4271525    1.9219909     1.906207 
 1840000   0.96709202 4.2786392e-05   0.46626235 0.0075057824            0   0.45875657    1.4433848    1.9096472    4.8670426 
 1845000   0.96030844 -6.5906792e-05   0.48453729 0.0038628281            0   0.48067446    1.4332604    1.9177976   -2.6376798 
 1850000    1.0006538 2.8171125e-05   0.42201732 0.0075435937            0   0.41447373    1.4934757    1.9154931    3.8626812 
 1855000   0.97427148 4.7201246e-05   0.44605914 0.0031315481            0   0.44292759    1.4541002    1.9001593    5.1627095 
 1860000   0.97594656 -1.6097994e-05   0.45676075 0.0061644434            0   0.45059631    1.4566002     1.913361   0.80066768 
 1865000   0.99546859 -5.2454437e-05   0.42937763 0.0068044738            0   0.42257316    1.4857369    1.9151145   -1.7105362 
 1870000   0.92810632 -2.559287e-05   0.50750821 0.0052646663            0   0.50224355    1.3851987    1.8927069   0.12372773 
 1875000    0.9461689 4.6787431e-05   0.48504861 0.0039593524            0   0.48108925    1.4121571    1.8972057    5.1311529 
 1880000   0.92879763 -2.8718249e-05   0.49886525 0.0031046293            0   0.49576062    1.3862305    1.8850957 -0.099909628 
 1885000   0.93392805 -3.1710974e-05   0.47897346 0.0015113115            0   0.47746215    1.3938876    1.8728611  -0.31900148 
 1890000   0.92942265 -5.3482502e-05   0.49030166 0.0046920917            0   0.48560957    1.3871633     1.877465   -1.8192456 
 1895000   0.91410493 2.2412136e-06   0.52861823 0.0064252856            0   0.52219294    1.3643016    1.8929198    2.0478325 
 1900000    0.9506987 -2.1001445e-05    0.4763426  0.013369743            0   0.46297286    1.4189178    1.8952604   0.44364057 
 1905000   0.90182823 2.0190358e-06   0.54641523 0.0080898284            0    0.5383254    1.3459786    1.8923939    2.0319496 
 1910000   0.95184007 -8.1271611e-06   0.46529722 0.00085139288            0   0.46444583    1.4206213    1.8859185    1.3241692 
 1915000    0.9616015 -3.4628811e-05   0.45367994 0.00025353429            0    0.4534264    1.4351902    1.8888702  -0.50467321 
 1920000   0.96827115 -2.3130885e-05   0.43764927 0.0023363082            0   0.43531296    1.4451447     1.882794   0.28398719 
 1925000   0.94275088 -4.3627226e-05   0.46217027  0.006562629            0   0.45560764    1.4070557     1.869226   -1.1462879 
 1930000   0.92369074 3.9401279e-05   0.46314751 0.0077567207            0   0.45539079    1.3786084    1.8417559    4.5651723 
 1935000   0.94569556 4.6280575e-05   0.42947567 0.0027355141            0   0.42674016    1.4114506    1.8409263    5.0398396 
 1940000   0.97714612 -7.5901568e-06   0.38619759 0.0023520888            0    0.3838455    1.4583906    1.8445882    1.3199565 
 1945000   0.91859896 -2.8978287e-05   0.46977105 0.0030034175            0   0.46676764    1.3710089      1.84078  -0.16219922 
 1950000    0.9383095 -1.0135742e-05   0.45208629 0.0050726626            0   0.44701363    1.4004269    1.8525132    1.1519308 
 1955000   0.87516396 -6.1891319e-05     0.557934  0.010143525            0   0.54779047    1.3061822    1.8641162   -2.4138117 
 1960000   0.92808528 1.9204501e-05   0.47417564  0.011263939            0   0.46291171    1.3851673    1.8593429     3.186758 
 1965000   0.96092978 -3.3943615e-06   0.45960179   0.01068068            0   0.44892111    1.4341877    1.8937895    1.6591712 
 1970000   0.93060551 -3.8461517e-05   0.49733113 0.0027135087            0   0.49461762    1.3889287    1.8862599  -0.77220016 
 1975000    0.9852007 4.9805581e-05   0.42177018  0.001495531            0   0.42027465     1.470412    1.8921822     5.334744 
 1980000   0.90181583 -2.5140302e-05   0.55589941 0.0034487799            0   0.55245063    1.3459601    1.9018595   0.16416186 
 1985000   0.96117212 -7.3796403e-05   0.47974212 0.0034941906            0   0.47624793    1.4345494    1.9142915   -3.1865159 
 1990000     0.996856 -2.3192794e-05   0.42480503 0.0014647735            0   0.42334026    1.4878076    1.9126126    0.3095267 
 1995000   0.90969427 -1.946033e-05   0.55967004 0.0052034177            0   0.55446662    1.3577187    1.9173887    0.5722907 
 2000000   0.95858794 2.3398201e-05   0.49372961  0.012411418            0    0.4813182    1.4306925    1.9244221    3.5417058 
 2005000   0.94874111 -3.9265269e-05   0.52283769 0.0095426554            0   0.51329504    1.4159961    1.9388338  -0.77518162 
 2010000   0.92393534 -1.1109565e-06   0.54894803 0.0063803547            0   0.54256768    1.3789735    1.9279215    1.8511322 
 2015000   0.96737853 -6.9057035e-07   0.48105794 0.0075729517            0   0.47348499    1.4438125    1.9248704    1.8771382 
 2020000   0.96124277 -3.37093e-05   0.51544324 0.0029362396            0   0.51250701    1.4346548    1.9500981  -0.37988876 
 2025000   0.90484453 1.9060802e-05    0.5956068 0.0070603357            0   0.58854646    1.3504805    1.9460873    3.2635699 
 2030000   0.96628605 1.5105381e-05   0.52688379  0.014062343            0   0.51282145    1.4421819    1.9690657    3.0131497 
 2035000   0.99124319 5.7219729e-05    0.4811612  0.012433164            0   0.46872803    1.4794305    1.9605917    5.9156193 
 2040000   0.96366227 -5.4556121e-05   0.52215171 0.0043913096            0    0.5177604    1.4382659    1.9604177   -1.8105014 
 2045000   0.98835964 2.6168773e-05     0.479799 0.0026657597            0   0.47713324    1.4751268    1.9549258    3.7637113 
 2050000   0.99429651 -3.60292e-05   0.46877829 0.0041394552            0   0.46463883    1.4839875    1.9527658  -0.53757245 
 2055000   0.94061901 -5.1962337e-05   0.52907284  0.016928719            0   0.51214412    1.4038739    1.9329467     -1.65869 
 2060000   0.95498057 3.2765687e-05   0.51400341 0.0086819111            0    0.5053215    1.4253085    1.9393119    4.2040762 
 2065000    0.9897424 -5.9532929e-06   0.46223712 0.0041495737            0   0.45808754    1.4771905    1.9394277     1.527936 
 2070000   0.98802789 -1.2143165e-05   0.47011678  0.016691704            0   0.45342508    1.4746316    1.9447484    1.1054128 
 2075000    1.0209875 -1.1999948e-05   0.39989823 0.0086929653            0   0.39120527    1.5238239    1.9237221    1.0942857 
 2080000   0.97030725 4.051047e-05   0.48491188 0.0015244627            0   0.48338741    1.4481836    1.9330955    4.7331792 
 2085000   0.94944261 9.6811508e-05   0.53373428 8.4167945e-05            0   0.53365011    1.4170431    1.9507774    8.6423888 
 2090000   0.99924541 -6.6537592e-06   0.46875372  0.003875115            0   0.46487861    1.4913738    1.9601275    1.5002197 
 2095000   0.93994695 -9.3573657e-06   0.55824892 0.0091178367            0   0.54913108    1.4028708    1.9611197    1.3143386 
 2100000   0.99364602 -5.0932021e-05   0.48766708  0.012118024            0   0.47554906    1.4830167    1.9706838   -1.5497375 
 2105000   0.96716216 5.6286564e-05   0.52924937  0.015720844            0   0.51352853    1.4434895    1.9727389    5.8632662 
 2110000   0.98544161 -2.7356725e-05   0.51436458  0.025076857            0   0.48928773    1.4707716    1.9851362  0.094239358 
 2115000   0.97029309 2.9948569e-05   0.52826568 0.0092716185            0   0.51899406    1.4481624    1.9764281    4.0464732 
 2120000   0.99123556 5.5517428e-05   0.51353989 0.0047582011            0   0.50878168    1.4794191     1.992959    5.8303236 
 2125000    0.9611317 -3.6858099e-05   0.57306089    0.0099405            0   0.56312039    1.4344891      2.00755  -0.54008185 
 2130000    1.0004427 -1.4299676e-06   0.51409084 0.0099682073            0   0.50412263    1.4931607    2.0072515    1.9084122 
 2135000    1.0190072 6.0938783e-05    0.4922281  0.012411936            0   0.47981616    1.5208682    2.0130963     6.225185 
 2140000    1.0218048 6.698038e-07   0.48369376    0.0105877            0   0.47310606    1.5250436    2.0087374    2.0550342 
 2145000    1.0315735 1.262622e-05   0.45552548 0.0067887682            0   0.44873671    1.5396235    1.9951489    2.8678732 
 2150000    1.0147033 2.7003763e-05   0.50666279  0.010679506            0   0.49598329    1.5144446    2.0211074    3.8876075 
 2155000    1.0412514 3.7158228e-05     0.467525 0.0092038733            0   0.45832112    1.5540677    2.0215927    4.5899694 
 2160000    1.0018299 -4.409854e-05   0.52721606 0.0078352304            0   0.51938083    1.4952311    2.0224472   -1.0256439 
 2165000    1.0708629 -1.2116592e-05   0.43256262 0.0072291465            0   0.42533347    1.5982628    2.0308255    1.1933267 
 2170000    1.0499631 3.7080367e-05   0.47541224 0.0046318872            0   0.47078035    1.5670699    2.0424822    4.6054772 
 2175000   0.96146023 2.9308387e-05   0.59158378 0.0020585397            0   0.58952524    1.4349794    2.0265632    4.0523589 
 2180000    1.0256065 5.4093975e-05   0.50499687  0.004886182            0   0.50011069    1.5307178    2.0357146    5.7746902 
 2185000   0.98668802 2.4974105e-05   0.55900552 0.0094058025            0   0.54959972    1.4726319    2.0316374    3.7578475 
 2190000    1.0286553 4.7315297e-05   0.49915226 0.0050095389            0   0.49414273    1.5352681    2.0344204    5.3048537 
 2195000    1.0314341 3.6626443e-05   0.47842785 0.0022265065            0   0.47620135    1.5394154    2.0178432     4.549463 
 2200000     1.045349 -4.8545839e-05   0.46719685 0.0070185593            0   0.46017829    1.5601834    2.0273803   -1.3281081 
 2205000    1.0230634 -2.9517407e-05   0.49660104  0.008748207            0   0.48785283    1.5269222    2.0235232 -0.016719946 
 2210000   0.97907181 -4.4278058e-05   0.55151014  0.012122292            0   0.53938785    1.4612647    2.0127748   -1.0477245 
 2215000    1.0134316 3.5099541e-05   0.49243986  0.020564305            0   0.47187555    1.5125467    2.0049865    4.4310668 
 2220000    1.0549628 5.2087702e-06   0.44701231   0.01777296            0   0.42923934     1.574532    2.0215443    2.3815745 
 2225000   0.94610735 -7.0101867e-05   0.60992469  0.032162537            0   0.57776215    1.4120652    2.0219899   -2.8234512 
 2230000    1.0698175 5.372182e-05   0.44040892  0.014758671            0   0.42565024    1.5967026    2.0371115    5.7503637 
 2235000   0.99212493 -6.9699073e-05   0.54045738 0.0065964059            0   0.53386098    1.4807465    2.0212038   -2.7963961 
 2240000    1.0336387 8.8672547e-06   0.48351254 0.0055670083            0   0.47794553    1.5427058    2.0262183     2.639123 
 2245000    1.0163362 7.5894529e-06    0.5050335 0.0059537199            0   0.49907978    1.5168818    2.0219153    2.5464983 
 2250000    1.0177196 -1.82452e-05   0.49615169 0.0036577034            0   0.49249398    1.5189465    2.0150982   0.75398995 
 2255000    1.0525405 5.1938859e-05   0.45423962 0.00096741942            0    0.4532722    1.5709167    2.0251564    5.6151703 
 2260000   0.96840628 -3.2554368e-05   0.57296617 0.0067136487            0   0.56625252    1.4453464    2.0183125   -0.2318454 
 2265000   0.98341288 -3.6650068e-05   0.54383913  0.013728164            0   0.53011096    1.4677437    2.0115828  -0.52166988 
 2270000    1.0115053 1.4889489e-05   0.50516701   0.01265211            0    0.4925149    1.5096716    2.0148386    3.0440001 
 2275000    1.0274401 -1.3129217e-05   0.47913301 0.0044549254            0   0.47467808    1.5334543    2.0125873    1.1050959 
 2280000   0.99392559 2.0561421e-05   0.53175825 0.0026363875            0   0.52912187    1.4834339    2.0151922    3.4363976 
 2285000   0.97447271 7.7159372e-07   0.55058506 0.0028867801            0   0.54769828    1.4544005    2.0049856    2.0583181 
 2290000    1.0161175 3.0869786e-05   0.48496206 0.0067379966            0   0.47822406    1.5165553    2.0015174     4.135237 
 2295000   0.97633901 1.7830184e-05   0.53405796  0.011911031            0   0.52214693     1.457186    1.9912439    3.2236663 
 2300000   0.96212593 2.0279536e-05   0.55597502 0.0087832237            0    0.5471918    1.4359729     1.991948    3.3936695 
 2305000   0.95743516 3.0192561e-05   0.55668866  0.022536504            0   0.53415216     1.428972    1.9856606    4.0725705 
 2310000    1.0108629 5.6971733e-05    0.4736841 0.0092942121            0   0.46438989    1.5087128    1.9823969    5.9202831 
 2315000   0.97063524 -3.1981807e-05   0.53316391 0.0082281923            0   0.52493571    1.4486731     1.981837  -0.22874549 
 2320000    1.0440554  3.48113e-05   0.44872577  0.006880987            0   0.44184478    1.5582527    2.0069785    4.4131356 
 2325000   0.95678816 3.2560562e-05   0.56820915 0.0036461226            0   0.56456303    1.4280063    1.9962155    4.2468015 
 2330000   0.97231089 -5.3698368e-05   0.53883333 0.0031075167            0   0.53572581     1.451174    1.9900073   -1.7216238 
 2335000   0.98147272 -3.2199276e-05   0.50799935  0.012700327            0   0.49529903     1.464848    1.9728474  -0.25276653 
 2340000    1.0249998 5.3638328e-05   0.44495573  0.011938722            0     0.433017    1.5298122    1.9747679    5.6822492 
 2345000    0.9973213 2.6996706e-05   0.48476373   0.01010175            0   0.47466198     1.488502    1.9732658    3.8392781 
 2350000   0.97186649 -4.6982673e-05   0.52040117  0.021803406            0   0.49859777    1.4505107    1.9709119   -1.2765304 
 2355000    1.0111194 -5.7380443e-05   0.48118347  0.011099829            0   0.47008364    1.5090957    1.9902792    -1.975857 
 2360000    1.0032686 -8.7571942e-05   0.48929056 0.0011713723            0   0.48811919    1.4973784     1.986669   -4.0663037 
 2365000     1.032369 2.7844615e-05   0.46815986 0.00011380766            0   0.46804606    1.5408108    2.0089707    3.9335904 
 2370000   0.99601828 6.7920145e-05   0.50776558 0.00033274978            0   0.50743283    1.4865573    1.9943229    6.6889633 
 2375000    1.0008067 2.1605527e-05   0.50554259 0.0014262654            0   0.50411633     1.493704    1.9992466    3.4926206 
 2380000     1.020328 1.4243182e-06   0.47534056  0.011290439            0   0.46405013    1.5228396    1.9981801     2.096629 
 2385000    1.0202992 -4.6393297e-05   0.46646164 0.0097768852            0   0.45668476    1.5227965    1.9892582   -1.2174465 
 2390000   0.97266604 -3.5390457e-05   0.50812777 0.0072056235            0   0.50092214    1.4517041    1.9598318  -0.48635656 
 2395000    1.0194159 -5.1204367e-05   0.44195644 0.0011522819            0   0.44080416    1.5214783    1.9634347   -1.5758111 
 2400000   0.94294203 3.273548e-05    0.5400614 0.0038668868            0   0.53619451     1.407341    1.9474024    4.2100787 
 2405000   0.98025269 -5.2133266e-06   0.48154617  0.004944083            0   0.47660208    1.4630271    1.9445733    1.5842282 
 2410000   0.94055029 -4.5910176e-05    0.5481018 0.0020960342            0   0.54600576    1.4037713    1.9518731   -1.2214383 
 2415000   0.99823529 1.6431963e-05   0.46384773 0.0012742732            0   0.46257346    1.4898662    1.9537139    3.0894912 
 2420000    1.0148189 3.3435689e-05   0.44756709 0.00099859643            0    0.4465685    1.5146172    1.9621843    4.2732591 
 2425000    1.0034334 -3.0609597e-05   0.47445353 0.00041312148            0   0.47404041    1.4976244    1.9720779   -0.1436574 
 2430000   0.97667475 8.3967177e-06   0.48110999 2.4103713e-05            0   0.48108589    1.4576871    1.9387971    2.5191782 
 2435000   0.92048383 1.7950806e-05   0.57028984 0.00057537626            0   0.56971446    1.3738221     1.944112    3.1848717 
 2440000   0.98741707 8.5860925e-06   0.46591929 0.0055168464            0   0.46040245      1.47372    1.9396393      2.53311 
 2445000   0.95000621 1.5709681e-05   0.50902802 0.0047735501            0   0.50425447    1.4178843    1.9269123    3.0127655 
 2450000   0.93526052 6.2381015e-06    0.5371709 0.0020310439            0   0.53513986    1.3958763    1.9330472    2.3642248 
 2455000   0.94415216 9.7264924e-06   0.54499653 0.0022731827            0   0.54272335    1.4091471    1.9541436    2.6264388 
 2460000   0.98091688 -1.8119883e-05   0.49827367  0.017535163            0   0.48073851    1.4640184    1.9622921   0.70984583 
 2465000   0.96456127 -5.2553452e-05   0.51314603  0.028236447            0   0.48490958    1.4396077    1.9527537   -1.6797409 
 2470000    0.9301543 -1.448702e-05   0.55293523  0.012596164            0   0.54033906    1.3882553    1.9411905   0.93984769 
 2475000     0.993919 6.4307617e-05   0.46061086  0.010793248            0   0.44981761    1.4834241     1.944035    6.3889775 
 2480000   0.94717701 -8.1034087e-06   0.53760168  0.017396277            0    0.5202054    1.4136617    1.9512634    1.3911558 
 2485000   0.93141711 -1.9232444e-05    0.5494078   0.01451885            0   0.53488895      1.39014    1.9395478   0.61020127 
 2490000   0.92218407 1.0624128e-05   0.55650147  0.019085838            0   0.53741563    1.3763597    1.9328612    2.6672009 
 2495000   0.95237063 -1.3686067e-05   0.52873191 0.0096147891            0   0.51911712    1.4214132    1.9501451    1.0041642 
 2500000   0.94556957 2.6160913e-06   0.53607362  0.007182455            0   0.52889117    1.4112626    1.9473362    2.1281604 
 2505000    0.9448217 -3.8399412e-05   0.51214378  0.009114172            0   0.50302961    1.4101464    1.9222902  -0.73187718 
 2510000   0.92098912 -5.3175701e-05   0.56454165 0.0019277534            0    0.5626139    1.3745763    1.9391179   -1.7363865 
 2515000   0.96697958 -5.061867e-05   0.49482726 0.0087765471            0   0.48605071     1.443217    1.9380443   -1.5607182 
 2520000   0.96364696 -6.755263e-06   0.50432604  0.011704491            0   0.49262155    1.4382431    1.9425691    1.4756454 
 2525000   0.93014156 2.8400106e-05   0.57521844  0.010918053            0   0.56430039    1.3882363    1.9634547      3.92647 
 2530000   0.96358468 -4.87677e-05   0.52686089 0.0056566894            0    0.5212042    1.4381501     1.965011   -1.4058124 
 2535000   0.94997797 8.4222084e-06   0.52442249 0.0046396696            0   0.51978282    1.4178421    1.9422646    2.5244077 
 2540000   0.90007952 3.8945062e-05   0.58449162  0.011371109            0   0.57312051    1.3433687    1.9278603     4.619743 
 2545000   0.97259446 -5.1619438e-05   0.50082809 0.0088077092            0   0.49202038    1.4515972    1.9524253   -1.6155102 
 2550000   0.98975232 5.7612733e-05   0.48290582 0.0032173276            0    0.4796885    1.4772053    1.9601112    5.9423033 
 2555000   0.96999636 2.5875767e-05   0.50479712  0.016155985            0   0.48864113    1.4477196    1.9525167    3.7410497 
 2560000   0.94931946 -5.5929577e-05   0.54324993  0.011337462            0   0.53191246    1.4168593    1.9601092   -1.9057431 
 2565000   0.93624857 -1.3899011e-05   0.54143789 0.0047592216            0   0.53667867     1.397351    1.9387889   0.97808925 
 2570000   0.92931813 8.4899987e-06    0.5537212 0.0061603315            0   0.54756086    1.3870073    1.9407285    2.5275572 
 2575000   0.92303035 2.1697027e-05    0.5418045 0.0027155178            0   0.53908898    1.3776228    1.9194273    3.4191258 
 2580000   0.94358393 -7.9794267e-06   0.50453842 0.0044635993            0   0.50007482     1.408299    1.9128374    1.3612995 
 2585000   0.95049795 8.8039441e-05   0.50585172 0.0044161594            0   0.50143556    1.4186182    1.9244699    8.0097561 
 2590000   0.94528426 4.5020665e-05   0.52167466 0.0087453221            0   0.51292934    1.4108368    1.9325114    5.0443398 
 2595000   0.95304911 -3.0296242e-05    0.5206032 0.0099915182            0   0.51061169    1.4224258     1.943029  -0.15104722 
 2600000   0.93603735 3.9088952e-05   0.52948067 0.0024701182            0   0.52701056    1.3970357    1.9265164    4.6283447 
 2605000    0.9368217 5.4554315e-06   0.54585823 0.0037073191            0   0.54215091    1.3982064    1.9440646     2.321144 
 2610000   0.96516861 3.8729896e-05   0.53437316 0.0097619535            0   0.52461121    1.4405141    1.9748873    4.6518977 
 2615000   0.94056296 -2.7009439e-05     0.565777 0.0073621883            0   0.55841481    1.4037902    1.9695672   0.10267482 
 2620000   0.90222694 -5.9069429e-05   0.62249288 0.0060159947            0   0.61647688    1.3465737    1.9690666   -2.1138123 
 2625000   0.96923089  4.99556e-06   0.52575161 0.0060185923            0   0.51973302    1.4465771    1.9723287    2.3176218 
 2630000   0.99173241 -2.2114606e-05   0.48683135 0.0027058252            0   0.48412553    1.4801606     1.966992   0.43843043 
 2635000   0.96382975 -2.012248e-05   0.52712857 0.0083412006            0   0.51878737    1.4385159    1.9656445   0.57477867 
 2640000    1.0141668 -7.3526752e-06   0.44875922 0.0061290861            0   0.44263013    1.5136439    1.9624031    1.4541862 
 2645000   0.99381702 -7.1597926e-06   0.49174044  0.011944916            0   0.47979552    1.4832719    1.9750123    1.4801275 
 2650000    1.0053168 -2.8195221e-05   0.49114639  0.029077501            0   0.46206889    1.5004353    1.9915817  0.042728005 
 2655000   0.95902822 -2.9598654e-06   0.54633603 0.0094977743            0   0.53683825    1.4313496    1.9776856    1.7730998 
 2660000   0.99031736 -3.799747e-05   0.50282641 0.0052975835            0   0.49752883    1.4780487    1.9808751  -0.64551005 
 2665000   0.98444557 9.8406042e-06   0.51402914  0.017634513            0   0.49639462     1.469285    1.9833141    2.6634967 
 2670000   0.96980727 1.5607659e-06   0.53861065  0.020058704            0   0.51855195    1.4474374     1.986048    2.0939281 
 2675000   0.94673945 -3.0021015e-05   0.57526332  0.014487861            0   0.56077546    1.4130086     1.988272  -0.08678062 
 2680000   0.98350518 -3.0947437e-05   0.51728846   0.01142927            0   0.50585919    1.4678815    1.9851699  -0.15391691 
 2685000   0.99880876 -2.6124099e-05   0.49593253 0.0086675129            0   0.48726502    1.4907221    1.9866546   0.18095688 
 2690000   0.98175857 -5.6882423e-05   0.53491405 0.0072198772            0   0.52769418    1.4652747    2.0001887   -1.9315244 
 2695000   0.93227993 4.5529792e-05   0.62752371 0.0040184967            0   0.62350521    1.3914278    2.0189515    5.1659707 
 2700000   0.99009157 2.0725177e-05   0.50717009 0.0054633951            0    0.5017067    1.4777117    1.9848818     3.417406 
 2705000   0.99348043 -2.4299399e-05   0.50537932  0.013983339            0   0.49139598    1.4827695    1.9881489   0.30857439 
 2710000    0.9473722 -9.2946059e-07   0.54888426  0.018614103            0   0.53027016     1.413953    1.9628373     1.898593 
 2715000   0.95082061 -8.4403082e-06    0.5503249  0.010678557            0   0.53964634    1.4190998    1.9694247    1.3860306 
 2720000   0.94464794 -1.2502846e-05   0.57654978 0.0047420048            0   0.57180777    1.4098871    1.9864368    1.1222401 
 2725000    1.0174777 -7.2470639e-06   0.46926247 0.0077683567            0   0.46149412    1.5185855    1.9878479    1.4869309 
 2730000   0.99164043 3.0981029e-05   0.52217915  0.011481292            0   0.51069786    1.4800233    2.0022025    4.1436112 
 2735000   0.97263614 4.7573715e-05   0.52323715 0.0034836799            0   0.51975347    1.4516594    1.9748966    5.2631918 
 2740000    1.0035891 -5.7756181e-05   0.48741917 0.0015480757            0    0.4858711    1.4978568     1.985276   -2.0068313 
 2745000   0.97601923 -7.2108603e-05   0.54059081 0.0066267888            0   0.53396402    1.4567087    1.9972995   -2.9868472 
 2750000   0.98161849 -2.6680013e-05   0.54376005  0.026166371            0   0.51759368    1.4650656    2.0088256   0.16470316 
 2755000    1.0059002 -6.3750776e-05   0.51082186   0.01796374            0   0.49285812    1.5013061    2.0121279   -2.3943257 
 2760000   0.96633803 -6.3049176e-05   0.55241842 0.0094834822            0   0.54293494    1.4422595    1.9946779   -2.3632811 
 2765000   0.96986409 2.6638718e-05   0.53415693 0.0042128971            0   0.52994403    1.4475222    1.9816791    3.8229473 
 2770000   0.98290083 8.3582355e-05   0.51664025 0.0055494116            0   0.51109084    1.4669795    1.9836197    7.7608321 
 2775000   0.96016621 -3.0512964e-05   0.56421687  0.012587863            0     0.551629    1.4330481    1.9972649  -0.11179114 
 2780000    0.9735461 -3.1621315e-05    0.5565897 0.0087543296            0   0.54783537    1.4530176    2.0096073  -0.17605801 
 2785000    1.0001224 1.2991913e-05   0.53231528  0.012793097            0   0.51952219    1.4926827     2.024998     2.922999 
 2790000   0.94341107 -3.4897255e-05   0.60679048 0.0098326064            0   0.59695787     1.408041    2.0148315   -0.3972668 
 2795000    1.0014424 1.8546817e-05   0.52007704  0.010229759            0   0.50984728    1.4946527    2.0147298    3.2966857 
 2800000   0.98682152 5.4217641e-06   0.55893545  0.013312679            0   0.54562277    1.4728311    2.0317666    2.4065189 
 2805000   0.99670358 2.7975297e-05    0.5532644  0.022768158            0   0.53049625    1.4875801    2.0408445     3.974497 
 2810000    1.0225668 -1.6479766e-05   0.52510501  0.012186396            0   0.51291861    1.5261809    2.0512859   0.91220449 
 2815000    1.0437943 -2.0423109e-05   0.51302446  0.013335758            0    0.4996887     1.557863    2.0708874   0.65924215 
 2820000   0.98047673 3.3852489e-05   0.61036384  0.013816002            0   0.59654784    1.4633615    2.0737254    4.4136094 
 2825000    1.0599356 -5.987086e-05   0.49903913  0.017497581            0   0.48154155    1.5819539    2.0809931   -2.0572808 
 2830000    1.0334279 2.4740016e-05     0.527011  0.008695824            0   0.51831517    1.5423911    2.0694021     3.779432 
 2835000    1.0372375 3.9234021e-05   0.53757825  0.014493849            0    0.5230844     1.548077    2.0856552    4.7975108 
 2840000    1.0463603 7.2893296e-05   0.51391085  0.013329041            0   0.50058181    1.5616927    2.0756036    7.1139882 
 2845000    0.9920587 -3.6956864e-06   0.60611352  0.011466472            0   0.59464705    1.4806476    2.0867611    1.8313153 
 2850000      1.05103 1.0882463e-05   0.51092036  0.013291151            0   0.49762921    1.5686623    2.0795827    2.8317785 
 2855000    1.0035323 2.603158e-05   0.57329866 0.0064923961            0   0.56680627    1.4977719    2.0710706    3.8703734 
 2860000    1.0470996 1.1029286e-05   0.50752534 0.0046848915            0   0.50284045    1.5627962    2.0703215    2.8326658 
 2865000   0.98505963 4.2160947e-06   0.59173167  0.004446993            0   0.58728468    1.4702015    2.0619332    2.3533496 
 2870000    1.0401821 2.4026518e-05   0.49771967 0.0065746053            0   0.49114506    1.5524718    2.0501914    3.7109044 
 2875000    1.0284499 2.4519006e-05   0.52701514 0.0091291013            0   0.51788604    1.5349615    2.0619766    3.7567303 
 2880000   0.96006841 -1.7681817e-06   0.63625811 0.0069591271            0   0.62929898    1.4329021    2.0691602    1.9469435 
 2885000    1.0223225 -4.3246937e-06   0.53854492 0.0049684808            0   0.53357644    1.5258164    2.0643613    1.7654385 
 2890000    1.0431928 -2.5112754e-05   0.49999361 0.0027235484            0   0.49727006    1.5569653    2.0569589   0.32116539 
 2895000     1.042947 1.3116274e-05   0.48587928 0.0040803845            0    0.4817989    1.5565983    2.0424776    2.9490744 
 2900000    1.0301241 8.6163524e-05   0.52613373 0.0064641929            0   0.51966954    1.5374603     2.063594    8.0192168 
 2905000   0.97395881 -2.2009115e-05    0.6138475 0.0074190576            0   0.60642844    1.4536335     2.067481   0.54621103 
 2910000   0.99620322 -1.7859484e-05   0.60040759 0.0070070545            0   0.59340054    1.4868333    2.0872409   0.85279338 
 2915000    1.0759435 -3.7573313e-05   0.49666975 0.0059963693            0   0.49067338    1.6058456    2.1025154  -0.49455203 
 2920000    1.0468669 2.9254371e-05   0.55049145 0.0094560716            0   0.54103538    1.5624488    2.1129403    4.1350024 
 2925000     1.014845 -1.7103756e-05   0.58785187  0.013857962            0   0.57399391    1.5146561     2.102508   0.92029635 
 2930000    1.0847126 -2.1992177e-05   0.49755024 0.0063769526            0   0.49117328    1.6189336    2.1164838   0.59638453 
 2935000     1.004649 6.1313444e-05   0.62079808 0.0060280424            0   0.61477004    1.4994387    2.1202368     6.358222 
 2940000    1.0030253 2.5030432e-05   0.61686833 0.0065809088            0   0.61028742    1.4970153    2.1138836    3.8439871 
 2945000    1.0554817 -3.1130931e-05   0.53239774 0.0090027674            0   0.52339497    1.5753065    2.1077042 -0.044065723 
 2950000    1.0760662 6.3723768e-06   0.50697017 0.0095186101            0   0.49745156    1.6060287    2.1129989    2.5534576 
 2955000    1.1030436 4.0355745e-05   0.49196456 0.0032490892            0   0.48871547    1.6462926    2.1382572    4.9276463 
 2960000    1.0290301 -4.2705425e-05   0.59173047 0.0066964068            0   0.58503406    1.5358275    2.1275579  -0.82424107 
 2965000    1.0609727 5.7829334e-05   0.55625844  0.019183582            0   0.53707486    1.5835018    2.1397602    6.1369238 
 2970000    1.0425198 -3.6246296e-05   0.57198606  0.013753458            0    0.5582326    1.5559609    2.1279469  -0.37739701 
 2975000    1.0134502 -7.5795369e-06   0.60277407  0.010953076            0   0.59182099    1.5125744    2.1153484    1.5914509 
 2980000    1.0511328 -2.7199097e-05   0.53337363   0.00510951            0   0.52826412    1.5688157    2.1021894   0.22218779 
 2985000    1.0786925 -2.8101658e-05   0.49704137 0.0076399044            0   0.48940146    1.6099486      2.10699   0.16460337 
 2990000     1.021517 -2.3766262e-05   0.57563684  0.013782593            0   0.56185425    1.5246141     2.100251   0.45752694 
[...]
19285000    1.0968719 1.4220078e-05   0.55665737   0.01633172            0   0.54032565    1.6370813    2.1937387    3.1766305 
19290000    1.0483585 -2.7412866e-05   0.63405918  0.017211376            0    0.6168478    1.5646751    2.1987343   0.30395699 
19295000    1.0475533 -3.8806635e-05   0.63752642  0.019071436            0   0.61845498    1.5634733    2.2009997  -0.48131495 
19300000    1.0492023 3.8899583e-06   0.61713635  0.015493341            0   0.60164301    1.5659344    2.1830708    2.4519447 
19305000    1.0359298 -6.0524715e-06   0.63239684  0.023553217            0   0.60884363    1.5461253    2.1785221    1.7601753 
19310000   0.99602232 -1.1672085e-05   0.68044368 0.0069160895            0   0.67352759    1.4865633     2.167007    1.3602325 
19315000    1.0631539 3.2107946e-05   0.55837729 0.0069969241            0   0.55138037    1.5867571    2.1451344    4.3644357 
19320000    1.0303225 1.7948006e-05   0.60327398  0.014703236            0   0.58857075    1.5377563    2.1410303    3.3815965 
19325000    1.0810598 2.7220841e-06   0.53243852  0.039889895            0   0.49254863    1.6134817    2.1459202    2.3340707 
19330000    1.0508637 1.3149366e-05   0.58009824  0.035131107            0   0.54496713    1.5684141    2.1485123    3.0573965 
19335000     1.020763 1.1697356e-05   0.62587264  0.022609024            0   0.60326362    1.5234887    2.1493614    2.9578826 
19340000    1.0005883 -1.4703038e-06   0.64664519  0.034685414            0   0.61195978     1.493378    2.1400232    2.0383958 
19345000    1.0099805 3.4626145e-06   0.60655421  0.033238691            0   0.57331552    1.5073959    2.1139501     2.353286 
19350000    1.0161886 1.3970113e-05   0.58140844  0.013778929            0   0.56762951    1.5166615      2.09807    3.0636842 
19355000    1.0361489 -1.2513614e-05   0.57027879  0.010697236            0   0.55958155    1.5464522     2.116731      1.25179 
19360000     1.005408 -4.2453238e-06   0.62109919  0.017642282            0   0.60345691    1.5005715    2.1216707    1.8282339 
19365000    1.0425317 -2.4953487e-05   0.58025223  0.024067306            0   0.55618492    1.5559786    2.1362308   0.41144579 
19370000    1.0427787 -4.3591476e-06   0.57734418  0.044231392            0   0.53311278    1.5563472    2.1336914    1.8323871 
19375000    1.0281658 1.6410688e-05   0.60788137  0.029999278            0   0.57788209    1.5345375    2.1424189    3.2767256 
19380000    1.0350138 -2.7730252e-06   0.59937108  0.015822758            0   0.58354832    1.5447581    2.1441292    1.9524577 
19385000    1.0576446 -5.3318474e-05   0.56411507 0.0093064828            0   0.55480859    1.5785346    2.1426496   -1.5427233 
19390000    1.0651183 -1.579904e-05    0.5725111  0.022202289            0   0.55030882     1.589689    2.1622001    1.0701705 
19395000    1.0515887 -1.9878465e-05   0.59099157  0.021119997            0   0.56987157    1.5694962    2.1604878   0.78648822 
19400000    1.0065804 -7.8505274e-05   0.64528342  0.016822476            0   0.62846094    1.5023213    2.1476047   -3.2786798 
19405000    1.0340051 -2.3946829e-05   0.61174073  0.023852855            0   0.58788787    1.5432526    2.1549933   0.49978851 
19410000    1.0023809 -2.3496202e-05   0.67121656  0.013287429            0   0.65792913    1.4960535    2.1672701    0.5432126 
19415000    1.0547667 -8.8597853e-05   0.58766957 0.0060138532            0   0.58165571    1.5742393    2.1619088   -3.9619747 
19420000     1.079428 -6.6889902e-05   0.54043799 0.0099877159            0   0.53045027    1.6110463    2.1514842   -2.4719458 
19425000    1.0479071 2.1730428e-05   0.59259782  0.024826353            0   0.56777146    1.5640014    2.1565992    3.6586064 
19430000    1.0303249 6.9866803e-05    0.6143374  0.019680466            0   0.59465694      1.53776    2.1520974    6.9812908 
19435000     1.019396 2.9827917e-05    0.6278206  0.012542549            0   0.61527805    1.5214486    2.1492692    4.2109748 
19440000    1.0262442 -9.7301748e-06    0.6102373  0.011883103            0   0.59835419    1.5316694    2.1419067     1.469357 
19445000    1.0172438 -4.6411372e-05   0.63365284  0.014514538            0    0.6191383    1.5182364    2.1518893   -1.0560647 
19450000    1.0561375 -3.080633e-05   0.59317209  0.019115726            0   0.57405637    1.5762852    2.1694573  0.040123776 
19455000    1.0255819 2.6761045e-05   0.64165035   0.02416985            0    0.6174805     1.530681    2.1723313    4.0220548 
19460000    1.0346138 -2.5554177e-05   0.64349961  0.045196594            0   0.59830301    1.5441611    2.1876607   0.42135598 
19465000    1.0816957 6.3468096e-06   0.56194386  0.016919387            0   0.54502447    1.6144308    2.1763747    2.6150661 
19470000    1.0211237 4.3872371e-05   0.65178865 0.0064506188            0   0.64533803    1.5240271    2.1758158     5.208274 
19475000     1.059074 -5.146959e-06   0.60620599  0.016884752            0   0.58932123     1.580668     2.186874    1.8311162 
19480000    1.0406846 -5.3401252e-05   0.62443879  0.028790622            0   0.59564817    1.5532217    2.1776605    -1.513434 
19485000    1.1030057 -6.9026969e-05   0.55592129  0.016451606            0   0.53946969     1.646236    2.2021573   -2.5689868 
19490000    1.0391442 -2.5912994e-05   0.63645445   0.02850004            0   0.60795441    1.5509228    2.1873772   0.39627107 
19495000      1.06384 1.3616352e-05   0.58883323  0.019709881            0   0.56912335    1.5877812    2.1766144    3.1177767 
19500000   0.99069294 2.2179812e-05   0.69226774   0.01775264            0    0.6745151    1.4786092     2.170877    3.7039455 
19505000    1.0694393 1.3269644e-05   0.56175469  0.025598337            0   0.53615635    1.5961381    2.1578928    3.0750906 
19510000   0.98180968 -7.4539023e-05   0.68854228  0.031021341            0   0.65752094    1.4653509    2.1538932    -2.998244 
19515000    1.0606618 -4.7349448e-05   0.57909598  0.022129227            0   0.55696675    1.5830377    2.1621337   -1.1106602 
19520000    1.0377155 -1.5783825e-05   0.60020138  0.014983229            0   0.58521815    1.5487904    2.1489918    1.0580139 
19525000    1.0022126 -2.5977335e-05     0.665792 0.0068835142            0   0.65890849    1.4958023    2.1615943   0.36604096 
19530000    1.0560137 -5.4013689e-05    0.5699727  0.010550236            0   0.55942246    1.5761004    2.1460731   -1.5873531 
19535000    1.0339193 -4.8727658e-05   0.60992128  0.011233385            0   0.59868789    1.5431246    2.1530458   -1.2150099 
19540000    1.0620492 -6.7527523e-05   0.56449993   0.01746379            0   0.54703614    1.5851084    2.1496084    -2.517894 
19545000    1.0585706 2.4922586e-05   0.56254644  0.030718769            0   0.53182767    1.5799166    2.1424631    3.8651122 
19550000    1.0508967 4.4464704e-05   0.58742648  0.020341901            0   0.56708458    1.5684634    2.1558899    5.2292902 
19555000   0.97991049 2.0099903e-05   0.67647857  0.012673784            0   0.66380479    1.4625164     2.138995    3.5283003 
19560000    1.0323537 3.5946184e-05   0.58284841  0.010437631            0   0.57241078    1.5407879    2.1236363    4.6082365 
19565000    1.1001483 -3.5752262e-07   0.47799697 0.0047028165            0   0.47329415    1.6419714    2.1199683    2.0952564 
19570000    1.0462161 -6.8926914e-05   0.55125971 0.0016231025            0   0.54963661    1.5614775    2.1127372   -2.6514911 
19575000     1.032148 -2.0055928e-05   0.59187715 0.0055914194            0   0.58628573    1.5404809    2.1323581   0.74609238 
19580000    1.0421546  2.29543e-05   0.56740691  0.016357835            0   0.55104907    1.5554158    2.1228227    3.7094239 
19585000     1.006664 5.377573e-06   0.61507898  0.017082802            0   0.59799618     1.502446     2.117525    2.4892228 
19590000   0.98980307 -1.8242719e-05   0.64163028   0.01401428            0     0.627616    1.4772811    2.1189114   0.85797466 
19595000    1.0030282 -5.5314155e-05   0.61744173  0.008218863            0   0.60922286    1.4970196    2.1144613   -1.7088531 
19600000    1.0494036 -6.6431101e-05    0.5332752  0.016727669            0   0.51654753    1.5662349    2.0995101   -2.4922076 
19605000    1.0059502 3.4386549e-05   0.60812658  0.012024419            0   0.59610216    1.5013806    2.1095072    4.4863054 
19610000    1.0225064 4.8757298e-05   0.60053776 0.0099664668            0   0.59057129    1.5260908    2.1266286     5.496733 
19615000    1.0097402 4.6956894e-05   0.61825722  0.015286945            0   0.60297027    1.5070372    2.1252944    5.3709549 
19620000    1.0557552 2.206789e-05    0.5383325  0.015654842            0   0.52267765    1.5757146    2.1140471    3.6393797 
19625000   0.97574397 1.2238324e-05   0.64290956  0.011212914            0   0.63169664    1.4562979    2.0992074    2.9451204 
19630000   0.98222891 2.9897687e-05   0.64625539  0.018399618            0   0.62785577    1.4659767     2.112232    4.1787602 
19635000    1.0117351 5.5895254e-07   0.59277079  0.030583545            0   0.56218725    1.5100147    2.1027855    2.1414203 
19640000    1.0008658 3.7936195e-09   0.59632855  0.033967779            0   0.56236077    1.4937922    2.0901207     2.090383 
19645000     1.027149 -2.4965811e-05   0.55967022  0.012384641            0   0.54728558    1.5330198    2.0926901   0.36705318 
19650000    1.0358238 1.3505984e-05   0.57447783 0.0075811788            0   0.56689665     1.545967    2.1204449    3.0539785 
19655000    1.0533431 3.1546891e-06   0.55964982  0.016255538            0   0.54339428    1.5721145    2.1317644    2.3498165 
19660000    1.0942137 -4.6102466e-05   0.51218665  0.021980036            0   0.49020661    1.6331139    2.1453006   -1.0413019 
19665000    1.0184444 1.8080558e-05   0.61076867  0.023563017            0   0.58720565    1.5200282    2.1307969    3.3805251 
19670000   0.96572621 4.9563077e-05   0.67987616  0.019403742            0   0.66047242    1.4413464    2.1212225    5.5470224 
19675000   0.98029404 4.1219642e-05   0.63980046 0.0071328556            0    0.6326676    1.4630889    2.1028893     4.951991 
19680000    1.0099299 -2.553647e-07   0.58009958  0.025629916            0   0.55446967    1.5073203    2.0874199    2.0697691 
19685000    1.0307462 -8.3856359e-06   0.54765173  0.021389909            0   0.52626182    1.5383887    2.0860405    1.5064253 
19690000   0.95698537 -1.7297679e-05   0.65139738 0.0096266283            0   0.64177075    1.4283007     2.079698   0.88408247 
19695000   0.97613614 -3.6270299e-05   0.62255222  0.035972267            0   0.58657996    1.4568832    2.0794354  -0.42756767 
19700000    1.0379404 -5.6951841e-05   0.53857392    0.0256922            0   0.51288172    1.5491261       2.0877   -1.8488113 
19705000    1.0228316 2.9982353e-05    0.6010442  0.030735409            0   0.57030879    1.5265761    2.1276203    4.2000005 
19710000     1.022153 6.2147718e-05   0.59214477  0.038273995            0   0.55387078    1.5255633    2.1177081    6.4133584 
19715000    1.0024211 3.7438768e-05   0.62255174  0.032846381            0   0.58970536    1.4961135    2.1186652    4.7064329 
19720000   0.99350438 2.8715392e-05   0.61898717   0.02958056            0   0.58940661    1.4828053    2.1017925    4.0866004 
19725000    1.0124758 -4.9901175e-05   0.59449195  0.034774919            0   0.55971703    1.5111201    2.1056121   -1.3435571 
19730000   0.96728154 -2.4652837e-05   0.65311075  0.023397955            0   0.62971279    1.4436677    2.0967785    0.3927744 
19735000   0.99792628 4.4434472e-05   0.57933979  0.018064417            0   0.56127537     1.489405    2.0687448    5.1400555 
19740000   0.98675105 2.2694323e-05   0.59413217  0.022235502            0   0.57189667    1.4727259    2.0668581    3.6354897 
19745000    1.0015097 1.6953042e-05   0.57910099   0.01790818            0   0.56119281    1.4947532    2.0738542    3.2456485 
19750000   0.97975012 -1.3911646e-05    0.5986753  0.018237493            0    0.5804378     1.462277    2.0609523    1.0993794 
19755000   0.97629046 -2.4531737e-05   0.60555354  0.022303603            0   0.58324994    1.4571135    2.0626671    0.3670334 
19760000   0.97585267 2.1122526e-05   0.60011803  0.037122327            0    0.5629957    1.4564601    2.0565781    3.5165671 
19765000    0.9749406 5.6276672e-05   0.60549661  0.027561955            0   0.57793466    1.4550988    2.0605955     5.950439 
19770000   0.98798258 -1.6258826e-05   0.58817813  0.018988452            0   0.56918968     1.474564    2.0627421   0.93893209 
19775000   0.95656081 -4.1517606e-05    0.6129402  0.043450117            0   0.56949008     1.427667    2.0406072  -0.82908972 
19780000    0.9154045 -2.2723245e-05   0.67561971  0.045319882            0   0.63029983    1.3662412    2.0418609   0.47123026 
19785000   0.95724693 1.4997976e-05   0.61418297  0.044085568            0   0.57009741     1.428691     2.042874    3.0795341 
19790000   0.97836189 3.0306234e-05   0.60255168  0.025820799            0   0.57673089    1.4602051    2.0627568    4.1575237 
19795000   0.98987685 2.9156042e-05   0.57885619  0.017740298            0   0.56111589    1.4773912    2.0562474     4.071513 
19800000    1.0401499 2.5754704e-05   0.50141939  0.018952756            0   0.48246664    1.5524237    2.0538431    3.8340082 
19805000   0.99800305 -2.9499332e-06   0.56326231  0.032027369            0   0.53123494    1.4895196    2.0527819    1.8488825 
19810000   0.94371789 4.0483336e-06   0.63648158  0.034621012            0   0.60186057     1.408499    2.0449805    2.3248014 
19815000   0.96114675 6.7316435e-05   0.61215263  0.028717487            0   0.58343515    1.4345115    2.0466642    6.6995761 
19820000   0.98961687 4.4112441e-05   0.59098524  0.012659514            0   0.57832572    1.4770032    2.0679884    5.1170403 
19825000    1.0237605 -4.872593e-05   0.53624252  0.013709694            0   0.52253282    1.5279625     2.064205   -1.3037313 
19830000   0.98068322 -7.2742808e-05   0.61819366  0.011116193            0   0.60707747    1.4636697    2.0818634   -2.9461195 
19835000   0.97518641 -4.4656188e-05   0.63154758 0.0073149622            0   0.62423262    1.4554657    2.0870133  -0.99962239 
19840000    1.0126507 -4.1108953e-05   0.57560317 0.0084561356            0   0.56714703    1.5113812    2.0869844  -0.75446643 
19845000   0.95702538 -3.827813e-06   0.69204608  0.044899841            0   0.64714624    1.4283604    2.1204065     1.855828 
19850000   0.96916587 2.802603e-05    0.6764043  0.051689188            0   0.62471511    1.4464801    2.1228844    4.0600435 
19855000    1.0309308 5.8412491e-06   0.57933282  0.026248923            0    0.5530839    1.5386642     2.117997    2.5217442 
19860000    1.0214157 3.2300809e-05    0.6041435  0.017099877            0   0.58704362    1.5244629    2.1286064    4.3612384 
19865000   0.99099386 -3.3480501e-05   0.65474335 0.0078133822            0   0.64692997    1.4790583    2.1338017  -0.18037055 
19870000    1.0374596 -3.6901559e-05   0.58868404  0.007190355            0   0.58149369    1.5484085    2.1370925  -0.41354322 
19875000   0.97918178 9.1811198e-05   0.68795651  0.018155748            0   0.66980077    1.4614288    2.1493853    8.4953753 
19880000    1.0109711 6.898427e-05   0.64763917  0.011460042            0   0.63617913    1.5088743    2.1565135    6.9247062 
19885000    1.0244204 1.0603357e-05   0.63816351  0.013919226            0   0.62424428    1.5289474    2.1671109    2.9000149 
19890000    1.0720469 2.5907302e-05   0.57834382    0.0240106            0   0.55433322      1.60003    2.1783739    3.9690866 
19895000    1.0212254 4.8096546e-05   0.66183578    0.0254663            0   0.63636948     1.524179    2.1860147     5.510448 
19900000   0.99752335 4.8319356e-05   0.68864042  0.034270653            0   0.65436977    1.4888036     2.177444    5.5172779 
19905000    1.0510259 9.2444924e-06   0.61514508  0.021584918            0   0.59356016    1.5686561    2.1838012    2.8227805 
19910000   0.97940935 -4.9793358e-06   0.73237356  0.012294932            0   0.72007862    1.4617685     2.194142    1.8499703 
19915000    1.0727841 3.0868752e-06   0.58613939  0.015963669            0   0.57017572    1.6011302    2.1872696    2.4006344 
19920000    1.0761627 2.2583251e-05   0.56894944  0.026789636            0    0.5421598    1.6061728    2.1751222    3.7360765 
19925000    1.0206304 2.0235921e-05   0.62975375  0.011077115            0   0.61867664    1.5232908    2.1530446    3.5517514 
19930000    1.0022142 3.8718193e-06    0.6709274  0.013827586            0   0.65709982    1.4958046     2.166732    2.4343522 
19935000   0.99128481 -1.9629268e-05   0.68025963   0.03076548            0   0.64949415    1.4794926    2.1597522    0.8029772 
19940000    1.0211895 -4.2099857e-06   0.63582387  0.035021747            0   0.60080212    1.5241253    2.1599492     1.868955 
19945000   0.96380464 5.3889649e-05   0.70867663  0.036799369            0   0.67187726    1.4384784    2.1471551    5.8720076 
19950000   0.95522317 3.0865813e-05   0.71308945   0.03099848            0   0.68209097    1.4256706      2.13876     4.272205 
19955000   0.96993393 -2.9704692e-05   0.68408499  0.031229266            0   0.65285572    1.4476264    2.1317114  0.078523097 
19960000    1.0271993 -3.8521715e-05   0.61938477  0.033157876            0   0.58622689    1.5330949    2.1524797  -0.51014123 
19965000    1.0393403 4.0336789e-06   0.60839188  0.027518461            0   0.58087342    1.5512155    2.1596074    2.4384152 
19970000    1.0640067 7.2108521e-05   0.57344463  0.033513392            0   0.53993124    1.5880301    2.1614747    7.1456156 
19975000   0.93281375 7.1184732e-05   0.76443555  0.018037369            0   0.74639819    1.3922245    2.1566601    7.0769487 
19980000    1.0693414 5.1282304e-05   0.56880879  0.016546071            0   0.55226272     1.595992    2.1648008    5.7094337 
19985000    0.9952024 2.3072852e-05   0.66354555   0.01863957            0   0.64490598    1.4853396    2.1488851    3.7436806 
19990000    1.0281203 -1.3091996e-05   0.62324745  0.015491689            0   0.60775576    1.5344696     2.157717    1.2527982 
19995000    1.0212828 -6.0500557e-05   0.65211968 0.0075780788            0    0.6445416    1.5242647    2.1763843   -2.0054142 
20000000    1.0406245 -5.3594172e-05   0.63802224  0.010524651            0   0.62749759     1.553132    2.1911542   -1.5132749 
Loop time of 532.816 on 1 procs for 20000000 steps with 200 atoms

Performance: 32431.472 tau/day, 37536.426 timesteps/s
99.7% CPU use with 1 MPI tasks x no OpenMP threads

MPI task timing breakdown:
Section |  min time  |  avg time  |  max time  |%varavg| %total
---------------------------------------------------------------
Pair    | 17.595     | 17.595     | 17.595     |   0.0 |  3.30
Bond    | 58.51      | 58.51      | 58.51      |   0.0 | 10.98
Neigh   | 83.472     | 83.472     | 83.472     |   0.0 | 15.67
Comm    | 192.45     | 192.45     | 192.45     |   0.0 | 36.12
Output  | 1.0068     | 1.0068     | 1.0068     |   0.0 |  0.19
Modify  | 167.25     | 167.25     | 167.25     |   0.0 | 31.39
Other   |            | 12.53      |            |       |  2.35

Nlocal:        200.000 ave         200 max         200 min
Histogram: 1 0 0 0 0 0 0 0 0 0
Nghost:        0.00000 ave           0 max           0 min
Histogram: 1 0 0 0 0 0 0 0 0 0
Neighs:        73.0000 ave          73 max          73 min
Histogram: 1 0 0 0 0 0 0 0 0 0

Total # of neighbors = 73
Ave neighs/atom = 0.365
Ave special neighs/atom = 5.9400000
Neighbor list builds = 4315
Dangerous builds = 0
write_restart restart.equil
System init for write_restart ...
WARNING: Communication cutoff 1.4200000000000002 is shorter than a bond length based estimate of 1.8. This may lead to errors. (../comm.cpp:667)
#--------------End of Input file ------------------
Total wall time: 0:08:53
