LAMMPS Description

40 atoms
39 bonds
0 angles
0 dihedrals
0 impropers

1 atom types
1 bond types
0 angle types
0 dihedral types
0 improper types

-80 80 xlo xhi
-80 80 ylo yhi
-80 80 zlo zhi

Masses

1 1.0

Atoms

1 1 1 -0 0 0 20 
2 1 1 -0 0 0 19 
3 1 1 -0 0 0 18 
4 1 1 -0 0 0 17 
5 1 1 -0 0 0 16 
6 1 1 -0 0 0 15 
7 1 1 -0 0 0 14 
8 1 1 -0 0 0 13 
9 1 1 -0 0 0 12 
10 1 1 -0 0 0 11 
11 1 1 -0 0 0 10 
12 1 1 -0 0 0 9 
13 1 1 -0 0 0 8 
14 1 1 -0 0 0 7 
15 1 1 -0 0 0 6 
16 1 1 -0 0 0 5 
17 1 1 -0 0 0 4 
18 1 1 -0 0 0 3 
19 1 1 -0 0 0 2 
20 1 1 -0 0 0 1 
21 1 1 -0 0 0 0 
22 1 1 -0 0 0 -1 
23 1 1 -0 0 0 -2 
24 1 1 -0 0 0 -3 
25 1 1 -0 0 0 -4 
26 1 1 -0 0 0 -5 
27 1 1 -0 0 0 -6 
28 1 1 -0 0 0 -7 
29 1 1 -0 0 0 -8 
30 1 1 -0 0 0 -9 
31 1 1 -0 0 0 -10 
32 1 1 -0 0 0 -11 
33 1 1 -0 0 0 -12 
34 1 1 -0 0 0 -13 
35 1 1 -0 0 0 -14 
36 1 1 -0 0 0 -15 
37 1 1 -0 0 0 -16 
38 1 1 -0 0 0 -17 
39 1 1 -0 0 0 -18 
40 1 1 -0 0 0 -19 

Bonds

1 1 1 2
2 1 2 3
3 1 3 4
4 1 4 5
5 1 5 6
6 1 6 7
7 1 7 8
8 1 8 9
9 1 9 10
10 1 10 11
11 1 11 12
12 1 12 13
13 1 13 14
14 1 14 15
15 1 15 16
16 1 16 17
17 1 17 18
18 1 18 19
19 1 19 20
20 1 20 21
21 1 21 22
22 1 22 23
23 1 23 24
24 1 24 25
25 1 25 26
26 1 26 27
27 1 27 28
28 1 28 29
29 1 29 30
30 1 30 31
31 1 31 32
32 1 32 33
33 1 33 34
34 1 34 35
35 1 35 36
36 1 36 37
37 1 37 38
38 1 38 39
39 1 39 40
