LAMMPS (29 Oct 2020)
###################### polyelectrolyte complexation ######################
clear

#Initialization
#------------------------------------
units				lj
dimension			3
atom_style			full
boundary			p p p

#Atom Definition
#-------------------------------------
read_data			data.complexation
Reading data file ...
  orthogonal box = (-80.000000 -80.000000 -80.000000) to (80.000000 80.000000 80.000000)
  1 by 1 by 1 MPI processor grid
  reading atoms ...
  40 atoms
  scanning bonds ...
  1 = max bonds/atom
  reading bonds ...
  39 bonds
Finding 1-2 1-3 1-4 neighbors ...
  special bond factors lj:    0.0      0.0      0.0     
  special bond factors coul:  0.0      0.0      0.0     
     2 = max # of 1-2 neighbors
     2 = max # of 1-3 neighbors
     4 = max # of 1-4 neighbors
     6 = max # of special neighbors
  special bonds CPU = 0.000 seconds
  read_data CPU = 0.002 seconds

#Force definition
#----------------------------------------------
#Bond definition
bond_style			harmonic
bond_coeff			1 5000 1
#Pair definition
special_bonds	lj 0 1 1
Finding 1-2 1-3 1-4 neighbors ...
  special bond factors lj:    0.0      1.0      1.0     
  special bond factors coul:  0.0      0.0      0.0     
     2 = max # of 1-2 neighbors
     2 = max # of 1-3 neighbors
     4 = max # of 1-4 neighbors
     6 = max # of special neighbors
  special bonds CPU = 0.000 seconds
pair_style		 lj/cut 1.12
pair_modify 		 shift yes
pair_coeff	1 1 1 1 1.12

#Timestep etc
#--------------------------------------------
timestep		1e-05
run_style		verlet
velocity		all	create	1	13

#Fix
#---------------------------------------
group polymers type 1
40 atoms in group polymers
fix 1 all nve
fix 2 all langevin 1	1	10	13
fix 3 polymers recenter INIT INIT INIT units box

#Dump
#------------------------------------------------
compute  1 all gyration
variable  myRg2 equal c_1
variable  i equal step
fix  mythermofile all print 5000 "$i ${myRg2}" file radius_of_gyration.dat screen no

thermo_style		 custom step temp press pe evdwl ecoul ebond ke etotal enthalpy
thermo 	5000
dump	3 all custom 5000 dump.lammpstrj id mol type xu yu zu
run		20000000
Neighbor list info ...
  update every 1 steps, delay 10 steps, check yes
  max neighbors/atom: 2000, page size: 100000
  master list distance cutoff = 1.42
  ghost atom cutoff = 1.42
  binsize = 0.71, bins = 226 226 226
  1 neighbor lists, perpetual/occasional/extra = 1 0 0
  (1) pair lj/cut, perpetual
      attributes: half, newton on
      pair build: half/bin/newton
      stencil: half/bin/3d/newton
      bin: standard
WARNING: Communication cutoff 1.4200000000000002 is shorter than a bond length based estimate of 1.8. This may lead to errors. (../comm.cpp:667)
Per MPI rank memory allocation (min/avg/max) = 54.71 | 54.71 | 54.71 Mbytes
Step Temp Press PotEng E_vdwl E_coul E_bond KinEng TotEng Enthalpy 
       0            1 9.5214844e-06            0            0            0            0       1.4625       1.4625       2.4375 
    5000   0.73921573 -0.00018279862   0.37645784            0            0   0.37645784     1.081103    1.4575608   -17.261018 
   10000   0.47290633 -0.00031970164   0.75782636            0            0   0.75782636   0.69162551    1.4494519   -31.287996 
   15000   0.80309298 -8.3329201e-05   0.24363831            0            0   0.24363831    1.1745235    1.4181618   -7.1147484 
   20000   0.88927549 2.4927264e-05   0.15499327            0            0   0.15499327    1.3005654    1.4555587    4.0081105 
   25000   0.77878777 -0.00015070078   0.32975777            0            0   0.32975777    1.1389771    1.4687349   -13.963025 
   30000   0.77317529 -0.00013261885   0.36583754            0            0   0.36583754    1.1307689    1.4966064   -12.083564 
   35000   0.86323653 0.00013363625   0.26514177            0            0   0.26514177    1.2624834    1.5276252    15.211977 
   40000   0.90562622 0.00011853517    0.2267263            0            0    0.2267263    1.3244783    1.5512046    13.689206 
   45000   0.80585203 -0.00017261755   0.41973708            0            0   0.41973708    1.1785586    1.5982957   -16.077741 
   50000   0.89541064 -2.5988312e-05   0.26552898            0            0   0.26552898    1.3095381     1.575067   -1.0861362 
   55000   0.76647173 0.00017020646   0.43181261            0            0   0.43181261    1.1209649    1.5527775    18.981919 
   60000     0.866961 -1.7970204e-05   0.31899672            0            0   0.31899672    1.2679305    1.5869272  -0.25322169 
   65000   0.77128315 -0.00012457861   0.47678629            0            0   0.47678629    1.1280016    1.6047879   -11.152062 
   70000   0.86555746 0.00010111534   0.36055538            0            0   0.36055538    1.2658778    1.6264332    11.980644 
   75000   0.83363249 -1.0015232e-05   0.43260014 0.0036984829            0   0.42890165    1.2191875    1.6517876   0.62622785 
   80000   0.74053896 3.7386055e-06   0.54854323  0.014306932            0    0.5342363    1.0830382    1.6315815    2.0144147 
   85000   0.83090732 -4.5584128e-05    0.4411884  0.043088219            0   0.39810018    1.2152019    1.6563904   -3.0114244 
   90000   0.84879566 0.00010656624   0.37860292 0.0074577809            0   0.37114514    1.2413637    1.6199666     12.53235 
   95000   0.80348053 -5.9135309e-05   0.43607628            0            0   0.43607628    1.1750903    1.6111666   -4.4442891 
  100000   0.86662251 -4.0414903e-05   0.32364118            0            0   0.32364118    1.2674354    1.5910766   -2.5474094 
  105000   0.78335541 0.00017441113   0.45509282            0            0   0.45509282    1.1456573    1.6007501     19.46045 
  110000   0.78192282 -0.00019034984   0.48315008            0            0   0.48315008    1.1435621    1.6267122   -17.865112 
  115000   0.88353185 0.0001229031   0.36361408            0            0   0.36361408    1.2921653    1.6557794    14.241057 
  120000   0.86311661 5.6219038e-05   0.36890563            0            0   0.36890563     1.262308    1.6312137    7.3880432 
  125000    0.7214128 -0.00015677961    0.5600834            0            0    0.5600834    1.0550662    1.6151496   -14.439083 
  130000   0.83679552 8.5601514e-05    0.4283839            0            0    0.4283839    1.2238134    1.6521974    10.417792 
  135000   0.93667258 3.9045561e-06    0.2970911            0            0    0.2970911    1.3698837    1.6669748    2.0668013 
  140000    0.8303467 -0.00016132547   0.41523332            0            0   0.41523332     1.214382    1.6296154   -14.890113 
  145000   0.84016817 0.00019472573   0.42790846            0            0   0.42790846    1.2287459    1.6566544    21.596569 
  150000   0.83500767 -6.4686034e-05    0.4743422            0            0    0.4743422    1.2211987    1.6955409   -4.9283089 
  155000   0.78283728 -9.1177712e-05   0.58111479            0            0   0.58111479    1.1448995    1.7260143   -7.6105834 
  160000   0.90054741 6.4512244e-05   0.39813789            0            0   0.39813789    1.3170506    1.7151885    8.3212423 
  165000   0.98112815  -1.6069e-05   0.28967974            0            0   0.28967974    1.4348999    1.7245797  0.079114022 
  170000   0.90584341 -1.6441953e-05   0.45929964            0            0   0.45929964     1.324796    1.7840956    0.1004396 
  175000   0.88871706 4.5313776e-05   0.49951714            0            0   0.49951714    1.2997487    1.7992658    6.4393965 
  180000   0.87023471 0.00013811663   0.54880312            0            0   0.54880312    1.2727183    1.8215214    15.964664 
  185000   0.88997117 -0.00013564519   0.51860447            0            0   0.51860447    1.3015828    1.8201873    -12.06988 
  190000    0.9832917 0.00017144464   0.38741694            0            0   0.38741694    1.4380641    1.8254811    19.381412 
  195000    1.0081238 -0.00012723865    0.3623056            0            0    0.3623056    1.4743811    1.8366867   -11.192551 
  200000    1.0349923 -5.0167574e-05   0.37082339            0            0   0.37082339    1.5136763    1.8844997   -3.2526599 
  205000   0.96447094 2.278441e-05   0.48717133            0            0   0.48717133    1.4105387    1.8977101    4.2308337 
  210000   0.96244325 -7.7289027e-05     0.503409            0            0     0.503409    1.4075732    1.9109822   -6.0034142 
  215000    1.0462152 8.8602881e-05    0.3691204            0            0    0.3691204    1.5300898    1.8992102    10.972145 
  220000    1.0882165 -2.4293476e-05   0.36048098            0            0   0.36048098    1.5915166    1.9519976   -0.5356543 
  225000   0.98450563 -4.611503e-05   0.52105122            0            0   0.52105122    1.4398395    1.9608907   -2.7612883 
  230000    1.0221082 7.5629664e-05   0.46307649            0            0   0.46307649    1.4948332    1.9579097    9.7023873 
  235000   0.88518033 -3.4138175e-05   0.59369782            0            0   0.59369782    1.2945762     1.888274    -1.607475 
  240000   0.91331354 7.2754479e-05   0.58607421            0            0   0.58607421     1.335721    1.9217953     9.371854 
  245000   0.89256459 -6.5878963e-05   0.61933893 2.9772539e-06            0   0.61933595    1.3053757    1.9247146   -4.8212912 
  250000     1.039373 -3.6108268e-05   0.45087402            0            0   0.45087402     1.520083     1.970957   -1.7265296 
  255000   0.91815444 2.7097489e-05   0.58710009 2.2714826e-05            0   0.58707737    1.3428009     1.929901    4.7046838 
  260000   0.80484707 -0.00011784662   0.72899351 9.0616941e-05            0   0.72890289    1.1770888    1.9060823   -10.161411 
  265000   0.95385387 4.9102922e-05   0.55839542            0            0   0.55839542    1.3950113    1.9534067    6.9815459 
  270000   0.98615684 -0.00013880756   0.47549331            0            0   0.47549331    1.4422544    1.9177477   -12.296147 
  275000    1.0283464 9.2396572e-05   0.37924918            0            0   0.37924918    1.5039567    1.8832059    11.344615 
  280000    0.9971211 -1.1784562e-05   0.40390141            0            0   0.40390141    1.4582896     1.862191    0.6554519 
  285000   0.92290099 1.8713572e-05    0.5206974 5.1755054e-05            0   0.52064565    1.3497427    1.8704401    3.7867099 
  290000   0.92658229 2.4218761e-05   0.52973163 0.0016061325            0   0.52812549    1.3551266    1.8848582    4.3648593 
  295000    0.8696958 1.7110684e-05     0.601934 0.0043817624            0   0.59755223    1.2719301    1.8738641    3.6259981 
  300000   0.87907247 5.8984682e-05   0.59342325 0.0043228886            0   0.58910036    1.2856435    1.8790667    7.9190982 
  305000    1.0504845 -4.5404827e-05   0.30545485 0.00070056218            0   0.30475429    1.5363336    1.8417884   -2.8076659 
  310000    1.0209833 2.4805991e-05   0.37754117            0            0   0.37754117     1.493188    1.8707292    4.4108626 
  315000     1.024354 -7.8636753e-06   0.35668357            0            0   0.35668357    1.4981177    1.8548012    1.0495609 
  320000    0.9781721 3.0761918e-05   0.44065696 2.4698463e-05            0   0.44063226    1.4305767    1.8712337     5.021254 
  325000   0.99286462 6.0797175e-05   0.43130758 0.00040672388            0   0.43090085    1.4520645    1.8833721    8.1090029 
  330000   0.86445158 -5.9960336e-05   0.60263241 0.0063590612            0   0.59627335    1.2642604    1.8668928   -4.2730455 
  335000   0.90504639 5.9286014e-05   0.54754825 0.0015625145            0   0.54598573    1.3236303    1.8711786    7.9420665 
  340000   0.90955334 1.1491962e-05   0.58254193  0.003191141            0   0.57935079    1.3302218    1.9127637    3.0895406 
  345000    1.0605879 5.2644779e-05   0.38264905 0.0027737731            0   0.37987528    1.5511098    1.9337588    7.3245842 
  350000   0.95574362 -0.00010091738   0.50142918 0.0075544279            0   0.49387475     1.397775    1.8992042   -8.4347353 
  355000    1.0532204 5.7937291e-06    0.3874023 0.0063023493            0   0.38109995    1.5403348    1.9277371    2.5210149 
  360000    1.0766011 7.8202806e-06   0.39006356  0.011413734            0   0.37864983    1.5745291    1.9645927    2.7653894 
  365000    1.0532017 -4.3016395e-05   0.42469572  0.014113881            0   0.41058184    1.5403075    1.9650032   -2.4398756 
  370000    1.0487641 4.8788594e-05   0.43023085 0.0036511023            0   0.42657975    1.5338174    1.9640483    6.9600003 
  375000    1.0800317 3.8606604e-05   0.37948916            0            0   0.37948916    1.5795463    1.9590355    5.9123518 
  380000    1.0756029 0.00011604503   0.40517963            0            0   0.40517963    1.5730692    1.9782488     13.86126 
  385000    1.0462405 -0.00010812785   0.45608604            0            0   0.45608604    1.5301267    1.9862127   -9.0860787 
  390000   0.95648664 8.4941739e-05   0.52377599            0            0   0.52377599    1.3988617    1.9226377    10.620672 
  395000   0.84678852 -0.00016808616   0.65904266 5.5584951e-05            0   0.65898707    1.2384282    1.8974709   -15.314552 
  400000   0.79020945 4.5993601e-05   0.75391304 0.00095607713            0   0.75295696    1.1556813    1.9095944    6.6193391 
  405000   0.83598566 -0.00017283681   0.69989061 0.0046863466            0   0.69520427     1.222629    1.9225196   -15.775969 
  410000   0.86480543 8.601342e-05   0.62231683 0.0053882019            0   0.61692863    1.2647779    1.8870948    10.694869 
  415000   0.94551491 -0.00012291706   0.53180417  0.006028034            0   0.52577614    1.3828156    1.9146197   -10.672087 
  420000   0.97464935 5.2310437e-05   0.49244157 0.0059960374            0   0.48644554    1.4254247    1.9178662     7.274455 
  425000   0.92573323 -9.5823028e-05   0.51276507  0.004914283            0   0.50785079    1.3538849    1.8666499   -7.9456281 
  430000   0.92255882 -1.6099861e-05   0.52439562  0.002162451            0   0.52223317    1.3492423    1.8736379   0.22501214 
  435000   0.93125819 -0.00011446601   0.50672114 0.00022382476            0   0.50649732    1.3619651    1.8686862   -9.8526336 
  440000   0.97937992 -2.1989655e-05   0.44687819            0            0   0.44687819    1.4323431    1.8792213  -0.37251936 
  445000   0.95447265 -3.5060542e-05   0.47296795 0.00054677507            0   0.47242118    1.3959162    1.8688842   -1.7213153 
  450000   0.94213351 4.8630619e-05   0.47051543 0.00020169488            0   0.47031374    1.3778703    1.8483857    6.8281611 
  455000   0.95063737 -0.00012037522   0.45419688 0.00084287633            0     0.453354    1.3903072     1.844504   -10.481918 
  460000   0.95109638 9.5838497e-05    0.4612371 0.0032955163            0   0.45794159    1.3909785    1.8522156    11.666078 
  465000   0.85771929 -3.769334e-05   0.60756928 0.0053410895            0   0.60222819    1.2544145    1.8619837   -1.9978143 
  470000   0.86986577 0.00018676079    0.5759853 0.0082317798            0   0.56775352    1.2721787     1.848164    20.972469 
  475000   0.93080508 -8.7691358e-05    0.5264481 0.0029378967            0   0.52351021    1.3613024    1.8877505   -7.0918446 
  480000   0.91550479 9.2645425e-05   0.56106158 0.0024737392            0   0.55858784    1.3389258    1.8999873    11.386879 
  485000   0.87115446 -0.00015057586   0.66026756  0.008366544            0   0.65190101    1.2740634     1.934331   -13.484637 
  490000   0.90961464 3.5129241e-05   0.57269455  0.014114315            0   0.55858024    1.3303114     1.903006    5.5002402 
  495000   0.94548443 -0.0001208363   0.55557221 0.0062831221            0   0.54928909     1.382771    1.9383432   -10.435294 
  500000   0.94252179 0.00011771462   0.55637564  0.001463201            0   0.55491244    1.3784381    1.9348138    13.988791 
  505000   0.98507004 -9.6616597e-05   0.56907884 0.0066791747            0   0.56239966    1.4406649    2.0097438   -7.8837958 
  510000    1.0009433 8.1273826e-05   0.55943833   0.00532263            0    0.5541157    1.4638796     2.023318    10.345758 
  515000    0.9920081 -7.1061747e-05   0.65338698 0.0072851509            0   0.64610183    1.4508118    2.1041988   -5.1725241 
  520000    1.0942253 8.4194272e-05   0.52435301 0.0010636316            0   0.52328938    1.6003044    2.1246575    10.746151 
  525000    1.0761855 -8.474734e-05   0.50224328 0.0072246971            0   0.49501858    1.5739214    2.0761646    -6.601963 
  530000    1.0281083 8.8770748e-05   0.58447281  0.041764127            0   0.54270869    1.5036083    2.0880812    11.178206 
  535000   0.91802331 -2.4017346e-05   0.70752935  0.015198526            0   0.69233082    1.3426091    2.0501384  -0.40923782 
  540000   0.97361937 6.9661236e-05   0.58892639  0.002563619            0   0.58636277    1.4239183    2.0128447    9.1461553 
  545000    1.0635371 -3.624704e-05   0.44205049 6.2867459e-05            0   0.44198762     1.555423    1.9974735   -1.7142234 
  550000   0.97837293 3.6538255e-05   0.56321163 0.0066384253            0    0.5565732    1.4308704     1.994082    5.7355994 
  555000   0.93473535 1.0880503e-05   0.65240401  0.018960668            0   0.63344335    1.3670505    2.0194545    3.1336179 
  560000    0.9439868 2.0393904e-06   0.65565223  0.017378238            0   0.63827399    1.3805807    2.0362329    2.2450665 
  565000   0.98932462  5.73849e-05   0.60198095  0.027734697            0   0.57424625    1.4468873    2.0488682    7.9250819 
  570000    1.1217471 -9.2337378e-05   0.41858603  0.002249626            0   0.41633641    1.6405552    2.0591412   -7.3962063 
  575000    1.0711956 1.4041181e-05    0.4681166 0.0068971193            0   0.46121948    1.5666236    2.0347402    3.4725571 
  580000    1.0387553 -8.5120225e-05   0.53796189  0.011675951            0   0.52628594    1.5191796    2.0571415   -6.6591696 
  585000     1.026894 0.00012819953   0.59384201 0.0058317277            0   0.58801029    1.5018325    2.0956745    15.223306 
  590000    1.1154123 -2.0650812e-05   0.45787793   0.03228156            0   0.42559637    1.6312905    2.0891684 -0.025474774 
  595000    1.0552248 7.2831177e-05   0.58095596  0.013238559            0   0.56771741    1.5432663    2.1242222    9.5821348 
  600000    1.0827529 -4.2722736e-05   0.58937855  0.010090633            0   0.57928791    1.5835262    2.1729047   -2.2019035 
  605000    1.1449762 -2.5568144e-05   0.49973526  0.016954312            0   0.48278095    1.6745277     2.174263  -0.44391497 
  610000    1.1237641 -6.3615694e-05   0.50936108  0.022824305            0   0.48653678     1.643505    2.1528661   -4.3613809 
  615000     1.180598 2.7820539e-05   0.41067095  0.015044602            0   0.39562635    1.7266246    2.1372956    4.9861188 
  620000    1.0932389 6.2712018e-05   0.53808402  0.028422251            0   0.50966177    1.5988619    2.1369459    8.5586566 
  625000   0.98104387 -6.9968404e-06   0.68714039  0.024756276            0   0.66238412    1.4347767    2.1219171    1.4054406 
  630000     1.105259 0.00012247191   0.45424029 0.0070011915            0    0.4472391    1.6164414    2.0706816    14.611806 
  635000   0.98899084 -6.6551149e-05   0.61060773 4.608534e-05            0   0.61056164    1.4463991    2.0570068   -4.7578308 
  640000    1.0848183 -8.4529684e-06   0.47980485            0            0   0.47980485    1.5865468    2.0663516    1.2007676 
  645000    1.0486773 1.2467861e-05   0.56911083            0            0   0.56911083    1.5336906    2.1028015    3.3795104 
  650000   0.98382357 -1.8678501e-05   0.62273973            0            0   0.62273973     1.438842    2.0615817   0.14890319 
  655000    1.1147364 5.6343319e-05   0.45644272            0            0   0.45644272     1.630302    2.0867447    7.8563006 
  660000   0.90063332 -0.00016570471   0.76235277            0            0   0.76235277    1.3171762     2.079529   -14.888633 
  665000   0.94593773 9.6853939e-05   0.65459975            0            0   0.65459975    1.3834339    2.0380337    11.955877 
  670000    0.8707261 -0.00015375518   0.79136087            0            0   0.79136087    1.2734369    2.0647978   -13.679733 
  675000    1.0169387 0.00010132761    0.5574706            0            0    0.5574706    1.4872729    2.0447435    12.420691 
  680000     1.075101 -6.3841962e-05   0.49879551 9.8868199e-05            0   0.49869664    1.5723352    2.0711307   -4.4662861 
  685000    1.0708465 -2.0045652e-05   0.51697411 0.0015488974            0   0.51542522    1.5661129    2.0830871  0.030412252 
  690000    1.1029358 9.7663607e-05   0.50987456 0.0031669902            0   0.50670757    1.6130436    2.1229181    12.123672 
  695000      0.93072 -7.1831555e-05   0.79882972 0.0012131517            0   0.79761657     1.361178    2.1600077   -5.1955435 
  700000     1.003008 0.00015931328   0.69883819 0.0035860717            0   0.69525212    1.4668992    2.1657374    18.479417 
  705000   0.86694701 -0.00012795188   0.88097541  0.047336002            0    0.8336394      1.26791    2.1488854   -10.953387 
  710000    1.0576466 3.5004857e-05   0.60008619  0.034128862            0   0.56595733    1.5468082    2.1468944    5.7313918 
  715000    1.0806659 -0.00011961364   0.55975696  0.013946683            0   0.54581028    1.5804739    2.1402308   -10.108206 
  720000    1.0528533 -5.9453751e-05   0.63715134 0.0088169697            0   0.62833437     1.539798    2.1769493   -3.9111148 
  725000    1.0815579 1.4096682e-05   0.57740892  0.014037412            0   0.56337151    1.5817785    2.1591874    3.6026876 
  730000    1.0294719 -5.1562916e-05   0.65893866  0.064711571            0   0.59422709    1.5056027    2.1645414   -3.1155012 
  735000    1.0433603 0.00011766821    0.6436204   0.10846572            0   0.53515468    1.5259145    2.1695349    14.218759 
  740000   0.97443947 1.4062587e-06   0.71855241  0.032520478            0   0.68603194    1.4251177    2.1436701     2.287671 
  745000   0.96169967 0.00014655688   0.78140532  0.010801561            0   0.77060376    1.4064858    2.1878911    17.195316 
  750000   0.94821308 -2.8438421e-05   0.75394222 0.0012039238            0   0.75273829    1.3867616    2.1407039  -0.77139051 
  755000    1.0128992 9.9219927e-05   0.66144325 0.00074191459            0   0.66070133     1.481365    2.1428083    12.302929 
  760000   0.94237902 -1.7321519e-05   0.74046849 0.0035802377            0   0.73688825    1.3782293    2.1186978   0.34497427 
  765000   0.90678255 -2.9706034e-06   0.78437475 0.0074730478            0   0.77690171    1.3261695    2.1105442    1.8063544 
  770000    1.0440895 2.3134148e-05   0.57397237  0.020547511            0   0.55342486     1.526981    2.1009533    4.4698901 
  775000    1.1095788 3.8219659e-05   0.45644509  0.013743444            0   0.44270165    1.6227591    2.0792042    5.9928973 
  780000   0.94292063 1.7902277e-05   0.67654833  0.012644836            0    0.6639035    1.3790214    2.0555698    3.8887629 
  785000   0.79300251 -1.4408643e-05   0.90128466  0.025738525            0   0.87554614    1.1597662    2.0610508   0.58560577 
  790000    1.0101445 -2.6576066e-05   0.54596261  0.037369289            0   0.50859332    1.4773363     2.023299  -0.69809019 
  795000    1.0650181 -1.4419081e-05   0.47788065  0.017098139            0   0.46078251     1.557589    2.0354696   0.55895575 
  800000    0.9659792 -2.0535936e-05   0.66025706   0.00552194            0   0.65473512    1.4127446    2.0730016 -0.029878169 
  805000   0.96576368 1.6370372e-05   0.65542699 0.0065247535            0   0.64890223    1.4124294    2.0678564    3.7441825 
  810000    1.1561233 -3.2340076e-05      0.48709  0.001329402            0   0.48576059    1.6908303    2.1779203   -1.1337035 
  815000    1.0768727 3.7601036e-05   0.64810342            0            0   0.64810342    1.5749264    2.2230298    6.0733759 
  820000    1.0595726 9.2746151e-05   0.70148991   0.01325817            0   0.68823174    1.5496249    2.2511148    11.748321 
  825000    1.1100314 4.3944882e-06    0.6507524  0.040336296            0    0.6104161    1.6234209    2.2741733    2.7241689 
  830000    1.0347875 0.00010389366   0.72460996  0.042011818            0   0.68259814    1.5133768    2.2379867    12.876698 
  835000     1.016598 -0.00010597922   0.73909293  0.074364504            0   0.66472843    1.4867746    2.2258675   -8.6264042 
  840000    1.0899303 -3.9751442e-05   0.61221493  0.020591822            0   0.59162311    1.5940231     2.206238   -1.8643097 
  845000    1.1075221 4.650232e-05   0.59575063  0.040975623            0   0.55477501     1.619751    2.2155016    6.9773392 
  850000    1.1649365 -3.4983732e-05   0.54494518  0.049954184            0   0.49499099    1.7037197    2.2486649   -1.3336693 
  855000   0.99707594 2.8793385e-05   0.77275426  0.021675286            0   0.75107897    1.4582236    2.2309778    5.1794205 
  860000    1.0079757 -2.8336223e-05   0.70723084 0.0038471717            0   0.70338367    1.4741645    2.1813953  -0.72023385 
  865000    1.1995971 -1.959383e-05   0.45136556  0.002209613            0   0.44915595    1.7544108    2.2057764   0.19936823 
  870000     1.179384 6.3834539e-05   0.48162659 0.0011921872            0   0.48043441    1.7248491    2.2064757    8.7431326 
  875000    1.0414184 -3.9630592e-05   0.70303709 0.0011982905            0    0.7018388    1.5230744    2.2261115   -1.8320611 
  880000   0.99009493 -6.5899677e-07    0.7836364  0.012718566            0   0.77091783    1.4480138    2.2316502     2.164169 
  885000    1.0685018 3.6253881e-05   0.67074212  0.039849411            0   0.63089271    1.5626839     2.233426    5.9458234 
  890000    1.1680609 5.6256005e-05   0.52269998  0.039770803            0   0.48292918    1.7082891    2.2309891     7.991604 
  895000    1.0570444 -4.4590493e-05   0.68182911  0.021658285            0   0.66017083    1.5459274    2.2277565     -2.33831 
  900000    1.1032187 5.0083822e-05   0.60795171   0.02865023            0   0.57930148    1.6134574    2.2214091    7.3499925 
  905000    1.2325538 3.0248409e-05   0.38726098 0.0097888751            0    0.3774721      1.80261    2.1898709     5.287308 
  910000    1.1131323 -1.8089992e-05   0.58342194 0.0087272074            0   0.57469473    1.6279559    2.2113779   0.35896266 
  915000    1.1182423 7.5607193e-05   0.56686567 0.0087026611            0   0.55816301    1.6354294     2.202295    9.9444716 
  920000    1.0692342 2.6680487e-05   0.65321478  0.022981056            0   0.63023372     1.563755    2.2169698    4.9490517 
  925000    1.1787177 1.2142509e-05   0.52151573  0.023167739            0   0.49834799    1.7238746    2.2453904    3.4887832 
  930000    1.1168898 -6.1516605e-05   0.56931444  0.018237232            0   0.55107721    1.6334513    2.2027657   -4.0965346 
  935000    1.1453656 -1.5178701e-05   0.57463865  0.025123685            0   0.54951497    1.6750972    2.2497359   0.69543695 
  940000    1.0456171 -3.2990773e-06   0.65203165  0.021896341            0   0.63013531     1.529215    2.1812466    1.8434211 
  945000    1.1045007 -0.00010335277   0.63554927 0.0027548943            0   0.63279437    1.6153323    2.2508816   -8.3324417 
  950000     1.078983 -5.3529287e-05   0.62185024            0            0   0.62185024    1.5780126    2.1998629   -3.2815362 
  955000    1.1791338 -0.00012137367   0.50516326            0            0   0.50516326    1.7244831    2.2296464   -10.199018 
  960000    1.0046315 3.1177739e-05   0.70216859            0            0   0.70216859    1.4692735    2.1714421    5.3640426 
  965000    1.0251969 -6.3311086e-06   0.66598464 2.0483665e-05            0   0.66596416    1.4993504    2.1653351    1.5170295 
  970000    1.0371242 0.00010605854   0.68686242 0.0023464887            0   0.68451593    1.5167941    2.2036565    13.064051 
  975000   0.99992746 3.2764812e-06    0.7630988  0.029747833            0   0.73335097    1.4623939    2.2254927    2.5610044 
  980000    1.0606331 3.5807423e-05    0.6061829   0.03056701            0   0.57561589     1.551176    2.1573588     5.824039 
  985000    1.1788949 9.3150971e-05   0.44269088 0.0096464483            0   0.43304443    1.7241338    2.1668247    11.705484 
  990000    1.0314676 6.4594545e-05   0.65444966 0.0068897475            0   0.64755992    1.5085213     2.162971    8.7774524 
  995000    1.0271667 2.598557e-05   0.61731031  0.067686967            0   0.54962334    1.5022313    2.1195416    4.7804639 
 1000000    1.0343259 4.1120346e-05   0.61219221  0.030595744            0   0.58159647    1.5127017    2.1248939    6.3356173 
 1005000    1.0441662 3.4567581e-05   0.59425222  0.032101882            0   0.56215034    1.5270931    2.1213453    5.6610656 
 1010000    1.0048165 -2.8531814e-05   0.66732311  0.030630117            0   0.63669299    1.4695442    2.1368673  -0.78479045 
 1015000   0.94488553 4.888972e-05   0.71890942   0.01453226            0   0.70437716    1.3818951    2.1008045    7.1071119 
 1020000   0.98051354 0.00011476552   0.66901077  0.021692538            0   0.64731823     1.434001    2.1030118    13.855001 
 1025000    1.1600687 6.5656014e-05   0.39292341  0.019934403            0   0.37298901    1.6966004    2.0895238    8.8126996 
 1030000   0.98848414 1.0083344e-05   0.56890795 0.0086330316            0   0.56027492    1.4456581     2.014566    3.0471005 
 1035000   0.97317442 6.6487735e-06   0.61343129 0.0025975788            0   0.61083371    1.4232676    2.0366989    2.7175333 
 1040000   0.99409556 -1.5722854e-05   0.55588756 0.0011136906            0   0.55477387    1.4538648    2.0097523   0.39973203 
 1045000   0.92570951 -0.00013909928   0.61176105 0.0010573811            0   0.61070367    1.3538502    1.9656112   -12.278155 
 1050000    1.0074595 -1.0512511e-06   0.47468688   0.00120254            0   0.47348434    1.4734095    1.9480963    1.8404482 
 1055000    1.0336461 0.00010843498   0.42090002 0.00023286331            0   0.42066715    1.5117075    1.9326075    13.036349 
 1060000   0.87623659 -7.7044128e-06   0.63287328 0.0024931208            0   0.63038016     1.281496    1.9143693    1.1254374 
 1065000   0.98079877 -1.390567e-05   0.50194057  0.012169967            0   0.48977061    1.4344182    1.9363588   0.51241822 
 1070000   0.92468396 -5.0580366e-05   0.54595617  0.012681247            0   0.53327492    1.3523503    1.8983065    -3.281123 
 1075000   0.91237035 -7.0541085e-05   0.57110859  0.018537832            0   0.55257076    1.3343416    1.9054502   -5.3179568 
 1080000   0.85060252 2.614464e-05   0.63012536  0.021915927            0   0.60820943    1.2440062    1.8741316    4.5513427 
 1085000   0.94342707 7.1794037e-05   0.50507819   0.01122079            0   0.49385739    1.3797621    1.8848403    9.2365496 
 1090000   0.91193589 -4.1590911e-05   0.55166246 0.0030540763            0   0.54860839    1.3337062    1.8853687   -2.3735406 
 1095000    0.9054776 -0.00011234825   0.55501039            0            0   0.55501039     1.324261    1.8792714   -9.6251899 
 1100000     0.936073 -4.8114147e-05   0.52962641 0.0062152717            0   0.52341114    1.3690068    1.8986332   -3.0282555 
 1105000   0.79393165 -2.8150382e-05   0.68177616  0.045511053            0   0.63626511     1.161125    1.8429012   -1.0396979 
 1110000   0.92990846 -2.2183249e-05   0.48849617  0.048004819            0   0.44049135    1.3599911    1.8484873  -0.42307739 
 1115000   0.88029458 3.8579585e-05   0.54636189  0.030731282            0   0.51563061    1.2874308    1.8337927    5.7843422 
 1120000   0.93228714 5.2335386e-05   0.47640373  0.020169452            0   0.45623427    1.3634699    1.8398737    7.1990172 
 1125000   0.81368048 6.1076528e-05   0.67072016  0.026979298            0   0.64374086    1.1900077    1.8607279    8.1149643 
 1130000   0.87149592 6.2437037e-05   0.60581548   0.05866378            0    0.5471517    1.2745628    1.8803783    8.2739309 
 1135000    0.8476934 -2.4796625e-06   0.63543817  0.055013454            0   0.58042471    1.2397516    1.8751898    1.6212723 
 1140000    0.8626612 -8.5150632e-06   0.60638715  0.035703826            0   0.57068333     1.261642    1.8680292   0.99608669 
 1145000   0.86028378 2.5986798e-05   0.59241856  0.064438496            0   0.52798006     1.258165    1.8505836    4.5116317 
 1150000    0.8493544 5.1292646e-05   0.57854742 0.0027425489            0   0.57580487    1.2421808    1.8207282    7.0730952 
 1155000    1.0018459 1.3715409e-05   0.39044782 0.0065156609            0   0.38393216    1.4651997    1.8556475    3.2601054 
 1160000   0.89950882 -2.8876583e-05   0.53644498  0.013463111            0   0.52298187    1.3155317    1.8519766   -1.1049855 
 1165000   0.80428248 -2.4341985e-05   0.67368127 0.0084463168            0   0.66523495    1.1762631    1.8499444  -0.64267484 
 1170000   0.97546476 -6.2908749e-05   0.40606726 0.0020509662            0   0.40401629    1.4266172    1.8326845   -4.6091715 
 1175000   0.84241067 -8.1398871e-05   0.60028552 0.00089103901            0   0.59939448    1.2320256    1.8323111   -6.5029332 
 1180000   0.83915818 1.5157051e-05    0.5914882    0.0079592            0     0.583529    1.2272688     1.818757    3.3708391 
 1185000   0.87884942 1.2791425e-05   0.57498643  0.022946688            0   0.55203974    1.2853173    1.8603037    3.1701456 
 1190000    0.9026631 -5.490037e-05   0.55584183 0.0086061303            0    0.5472357    1.3201448    1.8759866   -3.7458113 
 1195000   0.95028186 -2.8182243e-05   0.47050134 0.00016236401            0   0.47033898    1.3897872    1.8602886   -1.0255731 
 1200000   0.80562879 1.3031008e-05   0.66419501 1.7470845e-05            0   0.66417754    1.1782321    1.8424271    3.1768024 
 1205000   0.94148361 4.3234673e-05   0.49079059 4.2575962e-06            0   0.49078633    1.3769198    1.8677104    6.2949409 
 1210000   0.92682331 -1.8816278e-05   0.50399629 5.3493635e-05            0   0.50394279    1.3554791    1.8594754 -0.067311533 
 1215000   0.82046922 -3.6958286e-05   0.62456485 9.1849519e-05            0     0.624473    1.1999362    1.8245011   -1.9600274 
 1220000   0.85215462 3.7555069e-05     0.584213  0.022307985            0   0.56190501    1.2462761    1.8304891    5.6761282 
 1225000   0.84767575 4.463951e-05   0.59527212  0.033554738            0   0.56171739    1.2397258    1.8349979    6.4060837 
 1230000   0.93541301 2.9409365e-05   0.49823153  0.022384931            0    0.4758466    1.3680415    1.8662731     4.877792 
 1235000   0.86483539 8.0691999e-06   0.63506099  0.012696335            0   0.62236465    1.2648218    1.8998828    2.7261688 
 1240000   0.98977201 -3.279869e-05   0.52252661 0.0022935203            0   0.52023309    1.4475416    1.9700682   -1.3885177 
 1245000   0.92858699 -4.9851778e-05    0.6178651            0            0    0.6178651    1.3580585    1.9759236   -3.1288985 
 1250000   0.90454634 -2.1704853e-05   0.62903752 0.00037592953            0   0.62866159     1.322899    1.9519365  -0.27064039 
 1255000     1.027556 7.0578656e-05   0.42395083 0.0048217474            0   0.41912908    1.5028007    1.9267515    9.1540059 
 1260000   0.75993812 6.9005575e-05   0.83416964  0.019424517            0   0.81474512    1.1114095    1.9455791      9.01175 
 1265000   0.88964748 6.1741139e-05    0.6473794  0.064044124            0   0.58333528    1.3011094    1.9484888    8.2707815 
 1270000   0.93958175 6.8338664e-05   0.57620582  0.023475847            0   0.55272997    1.3741383    1.9503441    8.9482233 
 1275000   0.90924134 -3.8173788e-05   0.60618269  0.012433784            0   0.59374891    1.3297655    1.9359482   -1.9730478 
 1280000    1.0575574 1.1872125e-05   0.43372802  0.012754883            0   0.42097313    1.5466777    1.9804057    3.1961113 
 1285000    1.0153045 1.446855e-05   0.46847756  0.030000599            0   0.43847696    1.4848829    1.9533605      3.43494 
 1290000   0.89656533 -0.0001030466    0.6383082  0.056160877            0   0.58214732    1.3112268     1.949535   -8.6024365 
 1295000    0.8621859 -0.00012692796   0.67134738  0.060155005            0   0.61119238    1.2609469    1.9322943   -11.065129 
 1300000   0.88623415 -3.4090157e-05   0.67485909  0.028127117            0   0.64673198    1.2961174    1.9709765   -1.5198556 
 1305000    1.0178828 2.0878174e-05   0.46717717  0.014790219            0   0.45238695    1.4886536    1.9558308    4.0937557 
 1310000   0.88311542 0.00012913831   0.65179857  0.016814891            0   0.63498368    1.2915563    1.9433549    15.167118 
 1315000   0.85291333 0.00021283075   0.67461027  0.026943851            0   0.64766642    1.2473857     1.921996    23.715864 
 1320000   0.98504547 0.00013393507     0.513526 0.0084472292            0   0.50507877     1.440629     1.954155    15.669106 
 1325000   0.97116822 -8.6926938e-06   0.53265067 0.00043132336            0   0.53221935    1.4203335    1.9529842    1.0628523 
 1330000    0.8454815 -0.00011208377   0.70860267 0.0028240532            0   0.70577862    1.2365167    1.9451194   -9.5322586 
 1335000   0.99766414 -6.0273237e-05   0.51907098 0.0070314324            0   0.51203955    1.4590838    1.9781548   -4.1938247 
 1340000   0.95840613 -2.4932672e-05    0.5490073 0.0067554206            0   0.54225188     1.401669    1.9506763  -0.60242932 
 1345000   0.84087808 -3.8508072e-05   0.68857412 0.0060626597            0   0.68251146    1.2297842    1.9183583   -2.0248683 
 1350000   0.95455576 -8.6150442e-06   0.52066554  0.016477286            0   0.50418826    1.3960378    1.9167033    1.0345228 
 1355000    1.0078527 5.2974178e-05    0.4525908  0.031516318            0   0.42107448    1.4739846    1.9265754    7.3511312 
 1360000   0.82937055 -7.1817737e-05   0.68410736  0.042790649            0   0.64131671    1.2129544    1.8970618   -5.4570745 
 1365000   0.85658818 -0.00013803127   0.66922433  0.037358976            0   0.63186535    1.2527602    1.9219845   -12.212418 
 1370000   0.97454798 -1.9587537e-05    0.4887712  0.011246185            0   0.47752501    1.4252764    1.9140476 -0.091716175 
 1375000   0.87404861 3.2332794e-05   0.60321437 0.0038054622            0   0.59940891    1.2782961    1.8815105    5.1923886 
 1380000   0.92682902 -4.7660138e-05   0.57013542  0.016279272            0   0.55385615    1.3554874    1.9256229   -2.9547753 
 1385000   0.79239153 -0.00015973966   0.79622113    0.0385169            0   0.75770423    1.1588726    1.9550937   -14.402247 
 1390000   0.96208319 -4.0289838e-05   0.55746848  0.012474586            0    0.5449939    1.4070467    1.9645151   -2.1611643 
 1395000    0.9244389 6.6335885e-05   0.57816433            0            0   0.57816433    1.3519919    1.9301562    8.7229508 
 1400000   0.98464894 -2.8316508e-05   0.48706982 8.9383238e-05            0   0.48698043    1.4400491    1.9271189  -0.97249155 
 1405000    0.8803947 -1.9378882e-05   0.59184105 0.00070900487            0   0.59113205    1.2875773    1.8794183  -0.10497922 
 1410000   0.85755945 6.1977205e-05   0.66990313 0.0012993534            0   0.66860378    1.2541807    1.9240838    8.2705496 
 1415000   0.95815535 -9.3876106e-05   0.54471086 0.0036836426            0   0.54102721    1.4013022    1.9460131   -7.6669002 
 1420000    0.9425906 -0.00013862174   0.58459579  0.018764424            0   0.56583136    1.3785387    1.9631345   -12.231732 
 1425000   0.90140766 5.3689178e-05   0.62411343  0.073248869            0   0.55086456    1.3183087    1.9424221     7.440194 
 1430000   0.87777376 6.5153697e-05   0.62051784   0.12406484            0     0.496453    1.2837441     1.904262    8.5760005 
 1435000   0.94754316 -1.7102195e-05   0.53717459  0.042970674            0   0.49420392    1.3857819    1.9229565   0.17169172 
 1440000   0.95984481 1.516517e-06   0.52438482  0.011496093            0   0.51288873     1.403773    1.9281579    2.0834492 
 1445000   0.96053081 4.2126799e-07   0.50882105  0.037815796            0   0.47100525    1.4047763    1.9135974    1.9567352 
 1450000    1.0078905 6.2205852e-06   0.47102521  0.023564559            0   0.44746065    1.4740398    1.9450651     2.582053 
 1455000    1.0100339 6.4363456e-05   0.45584291  0.015105054            0   0.44073786    1.4771745    1.9330174    8.5238353 
 1460000   0.97426547 9.7977882e-05   0.46725625 0.0082289541            0    0.4590273    1.4248632    1.8921195    11.925055 
 1465000   0.95124869 3.0264619e-05   0.49128347 0.0063980523            0   0.48488542    1.3912012    1.8824847    4.9815817 
 1470000    0.9209908 1.4026451e-05   0.59224797 0.0028019419            0   0.58944603     1.346949     1.939197    3.3755056 
 1475000   0.88835288 6.4628464e-05   0.62987224 0.00011100751            0   0.62976124    1.2992161    1.9290883     8.547043 
 1480000   0.93273859 -6.6509504e-05   0.55691482 0.00024530363            0   0.55666952    1.3641302     1.921045   -4.8895282 
 1485000    1.0648898 -1.6450402e-05   0.34630452   0.00255532            0    0.3437492    1.5574013    1.9037058   0.21918466 
 1490000   0.91499485 0.00012163112   0.56619557 0.0074724918            0   0.55872308      1.33818    1.9043755    14.359402 
 1495000   0.89552719 5.656816e-06   0.58761197 0.0057803743            0    0.5818316    1.3097085    1.8973205    2.4765784 
 1500000   0.94311385 -9.6542278e-05   0.48009416 0.0090080881            0   0.47108607     1.379304    1.8593982   -8.0265311 
 1505000   0.95586217 -6.4749778e-05   0.41608876 0.0099964227            0   0.40609233    1.3979484    1.8140372   -4.8163401 
 1510000   0.81763594 -2.0857048e-06   0.61119727  0.010676663            0    0.6005206    1.1957926    1.8069898    1.5934137 
 1515000   0.77366837 6.5604394e-05   0.65333597 0.0059750776            0   0.64736089      1.13149     1.784826    8.5027159 
 1520000   0.94031518 2.7327296e-05   0.39644725 0.0015958092            0   0.39485144    1.3752109    1.7716582    4.5699733 
 1525000   0.94120255 -4.9212638e-05   0.41450108            0            0   0.41450108    1.3765087    1.7910098   -3.2483643 
 1530000   0.85064915 -3.8605227e-05   0.49833551  0.001828117            0    0.4965074    1.2440744    1.7424099   -2.2107653 
 1535000   0.85681048 4.6455713e-05   0.49432431  0.027118912            0    0.4672054    1.2530853    1.7474096    6.5044747 
 1540000   0.79313257 5.4432269e-05   0.60340839  0.030231411            0   0.57317698    1.1599564    1.7633648    7.3372291 
 1545000   0.86751867 9.7093962e-05   0.54218139  0.015190794            0    0.5269906    1.2687461    1.8109274    11.753349 
 1550000   0.74256665 5.7891354e-05   0.72816037  0.021174375            0     0.706986    1.0860037    1.8141641    7.7422387 
 1555000   0.85630439 -4.9725093e-05   0.55880107  0.026724206            0   0.53207687    1.2523452    1.8111462   -3.2807033 
 1560000   0.86965348 1.7686629e-05   0.54059727  0.030941105            0   0.50965617    1.2718682    1.8124655    3.6235763 
 1565000   0.84002232 -7.3089035e-05   0.61221859 0.0050685563            0   0.60715003    1.2285326    1.8407512   -5.6435659 
 1570000   0.86113405 -8.1183315e-05    0.5899185 0.0023595216            0   0.58755898    1.2594086    1.8493271   -6.4638444 
 1575000   0.95363846 8.4120144e-05   0.45081973  0.016333904            0   0.43448582    1.3946962     1.845516    10.459419 
 1580000   0.84588392 2.2330699e-05   0.65933834  0.050709208            0   0.60862913    1.2371052    1.8964436    4.1831071 
 1585000    0.9101447  5.54203e-05   0.55075547  0.033926071            0    0.5168294    1.3310866    1.8818421    7.5568808 
 1590000   0.95330998 2.7828607e-05   0.51957198 0.0063809737            0     0.513191    1.3942158    1.9137878    4.7634372 
 1595000   0.87842342 -6.956955e-05   0.61224699  0.014035667            0   0.59821133    1.2846943    1.8969412   -5.2269806 
 1600000   0.98730074 4.0176143e-05   0.49365399  0.016226651            0   0.47742734    1.4439273    1.9375813    6.0516184 
 1605000    1.0040113 -4.1029907e-06    0.4760897  0.001811871            0   0.47427783    1.4683665    1.9444562    1.5243099 
 1610000   0.84880649 -3.8313931e-05   0.71830825 0.00037603522            0   0.71793221    1.2413795    1.9596877   -1.9636588 
 1615000   0.94329292 -5.0486162e-05   0.61506877            0            0   0.61506877    1.3795659    1.9946347   -3.1751484 
 1620000   0.92232412 0.00010014936   0.63011905            0            0   0.63011905     1.348899    1.9790181    12.234312 
 1625000    1.0197179 -1.1639791e-06   0.47543326 0.00033122421            0   0.47510203    1.4913374    1.9667707    1.8475792 
 1630000   0.87475476 5.3065045e-05    0.6875867  0.014057774            0   0.67352893    1.2793288    1.9669155    7.4007762 
 1635000    0.9354152 -3.1463173e-05   0.61243433  0.033048972            0   0.57938536    1.3680447    1.9804791   -1.2413498 
 1640000     1.048744 -4.0057113e-05   0.44085505 0.0052638487            0   0.43559121    1.5337881    1.9746432   -2.1272051 
 1645000   0.93836932 -1.09414e-05   0.62030633            0            0   0.62030633    1.3723651    1.9926715   0.87227213 
 1650000   0.91304398 -0.0001037805   0.64611498            0            0   0.64611498    1.3353268    1.9814418   -8.6456809 
 1655000   0.96209178 1.7128412e-05   0.55418018            0            0   0.55418018    1.4070592    1.9612394    3.7151888 
 1660000    0.9373328 7.4987148e-05   0.59538593            0            0   0.59538593    1.3708492    1.9662351    9.6449191 
 1665000   0.94572699 -2.8540921e-05   0.56731984            0            0   0.56731984    1.3831257    1.9504456   -0.9721447 
 1670000   0.98443238 5.0834421e-05   0.51815541            0            0   0.51815541    1.4397324    1.9578878    7.1633325 
 1675000   0.94480187 0.00010885637   0.56615164            0            0   0.56615164    1.3817727    1.9479244    13.094817 
 1680000   0.95309105 -5.7024986e-05   0.58824644 0.00018856366            0   0.58805788    1.3938957    1.9821421   -3.8572165 
 1685000   0.98653105 -0.00014025505   0.50585621  0.011171768            0   0.49468444    1.4428017    1.9486579   -12.413459 
 1690000   0.86917508 9.212793e-06   0.63752014  0.021060872            0   0.61645927    1.2711686    1.9086887    2.8520787 
 1695000   0.90914358 7.9042885e-05   0.57367046  0.011135861            0    0.5625346    1.3296225    1.9032929    9.9972844 
 1700000   0.91716457 6.1951142e-05   0.57463434  0.033049933            0    0.5415844    1.3413532    1.9159875    8.2597844 
 1705000   0.91138525 2.1263403e-05   0.60285655  0.043922679            0   0.55893387    1.3329009    1.9357575      4.11313 
 1710000    0.9371411 -9.035021e-05   0.59591425   0.01020838            0   0.58570587    1.3705689    1.9664831   -7.2853784 
 1715000      1.03628 -1.80899e-05    0.4525262 0.0014779272            0   0.45104827    1.5155595    1.9680857   0.11567988 
 1720000   0.93295401 9.2773967e-05   0.63131849  0.009188731            0   0.62212976    1.3644452    1.9957637    11.495818 
 1725000   0.82125924 -3.3996764e-05    0.7354884  0.090208988            0   0.64527941    1.2010916      1.93658   -1.5446886 
 1730000    1.0390037 -3.9219875e-05   0.39255026  0.016348891            0   0.37620137    1.5195429    1.9120931   -2.1040221 
 1735000   0.89424951 4.2891867e-05   0.59482586 0.00035201732            0   0.59447385    1.3078399    1.9026658     6.294793 
 1740000   0.91729985 -1.3065226e-05    0.6048732 0.0030176472            0   0.60185555     1.341551    1.9464242   0.60854511 
 1745000   0.96582688 -3.7114121e-05   0.58316662  0.026880482            0   0.55628614    1.4125218    1.9956884   -1.8047975 
 1750000   0.98465283 -1.0791673e-05   0.58561413  0.036227708            0   0.54938642    1.4400548    2.0256689   0.92060156 
 1755000   0.98774557 4.2032425e-05   0.59650849  0.053025129            0   0.54348336    1.4445779    2.0410864    6.3452067 
 1760000    1.0520002 8.3082596e-05   0.45099289  0.042998543            0   0.40799435    1.5385502    1.9895431    10.497201 
 1765000   0.87517399 9.8958289e-05   0.67519071   0.06004858            0   0.61514213     1.279942    1.9551327    12.088462 
 1770000   0.92359441 6.6844127e-05   0.64254965   0.04180441            0   0.60074524    1.3507568    1.9933065    8.8381451 
 1775000     1.115154 -1.4296157e-05   0.39869257  0.013052075            0    0.3856405    1.6309127    2.0296052   0.56567879 
 1780000   0.96917816 -5.4708267e-05   0.62000209 0.0049606306            0   0.61504145    1.4174231    2.0374251   -3.5647014 
 1785000   0.89393406 -5.3297925e-05   0.73303783 0.0086106227            0   0.72442721    1.3073786    2.0404164   -3.4172911 
 1790000    1.0787546 6.3205126e-06   0.46473478 0.0034307917            0   0.46130399    1.5776786    2.0424134    2.6896339 
 1795000   0.97739599 0.00012584978   0.55708515 0.0003752505            0    0.5567099    1.4294416    1.9865268    14.873545 
 1800000   0.99407802 1.5463716e-05   0.56884412 0.00033764463            0   0.56850648    1.4538391    2.0226832    3.6061677 
 1805000    1.0546528 -9.8256719e-05   0.48529449 0.0052541223            0   0.48004037    1.5424297    2.0277242   -8.0337638 
 1810000   0.99482148 -8.6996524e-05   0.59790536  0.013305619            0   0.58459974    1.4549264    2.0528318   -6.8556123 
 1815000   0.95643519 -6.9954106e-05   0.62849329   0.01412745            0   0.61436584    1.3987865    2.0272797   -5.1360207 
 1820000   0.98045066 6.5820694e-05   0.54221286  0.021390364            0    0.5208225    1.4339091     1.976122    8.7161611 
 1825000   0.92229756 8.6541308e-05   0.64114113  0.084373509            0   0.55676762    1.3488602    1.9900013    10.851831 
 1830000    1.0449895 -3.8703013e-05   0.44356169  0.065607663            0   0.37795402    1.5282971    1.9718588   -1.9913297 
 1835000   0.93253229 -5.7787052e-05   0.63314818  0.010981418            0   0.62216676    1.3638285    1.9969767   -3.9204175 
 1840000    1.1500662  1.06447e-06   0.31201266 0.0042033169            0   0.30780935    1.6819718    1.9939844    2.1029862 
 1845000    0.9633232 -1.1884588e-05   0.58239921 0.00038237552            0   0.58201683    1.4088602    1.9912594   0.77427756 
 1850000   0.98753637 -4.6354576e-06   0.53646259            0            0   0.53646259    1.4442719    1.9807345    1.5060637 
 1855000   0.97908694 -1.969932e-05   0.53578837            0            0   0.53578837    1.4319147     1.967703 -0.049507315 
 1860000   0.93525864 -9.7297271e-06    0.5491846            0            0    0.5491846    1.3678158    1.9170004    0.9206763 
 1865000   0.94451885 -1.1634117e-05   0.54583714            0            0   0.54583714    1.3813588     1.927196    0.7358624 
 1870000   0.95464004 -0.00010894877    0.5425289 0.0081510418            0   0.53437785    1.3961611      1.93869   -9.2176641 
 1875000    1.0067752 -2.8570346e-05   0.48558432  0.077304134            0   0.40828019    1.4724087     1.957993  -0.96761041 
 1880000    1.0062349 -1.8447666e-05   0.52838173  0.014338169            0   0.51404356    1.4716185    2.0000003   0.11095922 
 1885000    1.0719173 -1.5035297e-05   0.46645951            0            0   0.46645951     1.567679    2.0341385   0.49452412 
 1890000    1.0558187 -1.5732057e-05   0.48768303  0.013559297            0   0.47412373    1.5441348    2.0318178   0.42085518 
 1895000   0.98112766 -0.00012211698   0.55806265  0.073756883            0   0.48430576    1.4348992    1.9929619   -10.511817 
 1900000    1.0284259 -3.2241642e-05   0.47207391  0.030963215            0    0.4411107    1.5040728    1.9761468   -1.3253974 
 1905000    1.1021322 4.4483714e-06   0.36466484 0.0088580979            0   0.35580675    1.6118683    1.9765332    2.4320464 
 1910000    1.0553918 3.0338915e-06   0.42270503  0.041711612            0   0.38099342    1.5435106    1.9662156    2.2768861 
 1915000   0.96127648 9.1243868e-06   0.51086285  0.014312526            0   0.49655032    1.4058669    1.9167297    2.8510669 
 1920000   0.99426914 -1.6069443e-05    0.4889109 0.0030456683            0   0.48586523    1.4541186    1.9430295   0.29751858 
 1925000    1.0154264 8.6109661e-05   0.44433163 0.0033185474            0   0.44101308    1.4850611    1.9293927    10.747022 
 1930000    1.0568235 -8.4818003e-06   0.38217952 0.0018617206            0    0.3803178    1.5456044     1.927784    1.0592476 
 1935000   0.98371044 -0.00010984139    0.5176583 0.0046750832            0   0.51298322    1.4386765    1.9563348    -9.291424 
 1940000   0.94610231 -8.2255381e-05   0.53021194  0.023004011            0   0.50720793    1.3836746    1.9138866   -6.5090645 
 1945000   0.99544207 -2.14737e-05   0.43952859  0.030283628            0   0.40924496     1.455834    1.8953626  -0.30354427 
 1950000   0.96956621 -1.2835302e-05   0.48809253  0.015797827            0   0.47229471    1.4179906    1.9060831   0.59174822 
 1955000   0.91789913 -3.7907127e-05   0.55325231   0.07505381            0    0.4781985    1.3424275    1.8956798     -1.98601 
 1960000   0.87446474 -7.9882675e-05    0.6302113  0.020644671            0   0.60956663    1.2789047     1.909116   -6.2708699 
 1965000    1.0826675 -7.3153469e-05    0.3112723  0.014709179            0   0.29656312    1.5834012    1.8946735   -5.5962418 
 1970000   0.97016132 -2.8246567e-05   0.48634034  0.039659083            0   0.44668126    1.4188609    1.9052013  -0.98724714 
 1975000   0.97567667 -3.3046586e-05   0.46388674  0.031931842            0    0.4319549    1.4269271    1.8908139   -1.4931566 
 1980000   0.96136548 -6.6630031e-06   0.44822261  0.010796995            0   0.43742561     1.405997    1.8542196    1.1719281 
 1985000   0.98222638 2.1987193e-05   0.43354803  0.018620035            0     0.414928    1.4365061    1.8700541    4.1215427 
 1990000   0.88711705 3.2443429e-05   0.57292549  0.072744624            0   0.50018087    1.2974087    1.8703342    5.1925413 
 1995000   0.90407309 4.3228548e-05   0.51616339  0.060919151            0   0.45524424    1.3222069    1.8383703    6.2649736 
 2000000    0.9385292 1.9157719e-06   0.46355757  0.032154398            0   0.43140317     1.372599    1.8361565    2.0323316 
 2005000   0.98935654 -3.1322626e-05   0.36578346  0.019817007            0   0.34596646    1.4469339    1.8127174   -1.3947195 
 2010000   0.97237334 -3.8919236e-05   0.37703818  0.032031461            0   0.34500672     1.422096    1.7991342   -2.1861956 
 2015000   0.93716906 -8.5315921e-05   0.47964415  0.051092416            0   0.42855173    1.3706097    1.8502539   -6.8860965 
 2020000    1.0052501 -0.00012530869   0.41788336  0.025749225            0   0.39213413    1.4701783    1.8880616   -10.943548 
 2025000   0.96965243 -6.5542695e-05   0.47584316 0.0036736891            0   0.47216947    1.4181167    1.8939598   -4.8176121 
 2030000    1.0276787 1.9620949e-05   0.36210865  0.019669372            0   0.34243927    1.5029801    1.8650887    3.8742739 
 2035000   0.90315203 2.8370155e-05   0.48601151  0.031369885            0   0.45464163    1.3208599    1.8068714    4.7119752 
 2040000   0.94980295 7.1126856e-06    0.4739593  0.044792172            0   0.42916713    1.3890868    1.8630461    2.5913851 
 2045000   0.94827777 -2.3805512e-05   0.52416577 0.0059159378            0   0.51824983    1.3868562     1.911022   -0.5266624 
 2050000    1.0008964 -7.7156843e-05   0.37403432            0            0   0.37403432     1.463811    1.8378453   -6.0630154 
 2055000   0.93792687 1.1551655e-05   0.46001903            0            0   0.46001903     1.371718    1.8317371    3.0146266 
 2060000     1.014807 0.00012062541    0.3583887            0            0    0.3583887    1.4841553     1.842544    14.194586 
 2065000   0.93476425 8.6844265e-05   0.44047691            0            0   0.44047691    1.3670927    1.8075696    10.700422 
 2070000    1.0086864 1.0919879e-05   0.33732342  0.013780012            0   0.32354341    1.4752039    1.8125273     2.930723 
 2075000   0.77777256 -3.1836943e-05   0.67862944  0.086994698            0   0.59163474    1.1374924    1.8161218   -1.4439812 
 2080000   0.91218244 -5.9262568e-05   0.47923478  0.027266844            0   0.45196793    1.3340668    1.8133016   -4.2551854 
 2085000   0.97776527 6.0525591e-06   0.37558677 0.0028475846            0   0.37273919    1.4299817    1.8055685    2.4253505 
 2090000   0.93819375 -9.5397796e-05   0.39188908 0.0030880292            0   0.38880106    1.3721084    1.7639974   -8.0047368 
 2095000   0.89228721 -0.00011792851   0.46773372 0.0025562586            0   0.46517747      1.30497    1.7727038   -10.303176 
 2100000   0.85912405 -0.0001306481   0.52294601 0.00012770959            0    0.5228183    1.2564689    1.7794149   -11.598951 
 2105000    1.0073207 -6.5541699e-05   0.32315171            0            0   0.32315171    1.4732065    1.7963582   -4.9151117 
 2110000    1.0439056 6.4829475e-06   0.32919117 0.0019293642            0   0.32726181    1.5267119    1.8559031    2.5197569 
 2115000   0.99395149 1.9696947e-05   0.37006922  0.010885451            0   0.35918377    1.4536541    1.8237233    3.8406906 
 2120000   0.95772881 -1.3021739e-05   0.44985856 0.0095966969            0   0.44026186    1.4006784    1.8505369   0.51711089 
 2125000   0.94860194 4.5104151e-05   0.45479485 0.0010293044            0   0.45376554    1.3873303    1.8421252    6.4607903 
 2130000   0.95700451 3.8971281e-07   0.44239329            0            0   0.44239329    1.3996191    1.8420124     1.881919 
 2135000   0.96475434 4.496395e-05   0.41015277  0.016210534            0   0.39394224    1.4109532     1.821106    6.4254145 
 2140000   0.91665625 -2.6736156e-05   0.46374525  0.046725906            0   0.41701934    1.3406098     1.804355  -0.93342734 
 2145000   0.97266382 -8.244336e-05   0.40148514  0.052550526            0   0.34893461    1.4225208     1.824006   -6.6181941 
 2150000    1.0465646 -7.3978172e-06   0.35250239 0.0043617957            0   0.34814059    1.5306008    1.8831031    1.1255667 
 2155000    1.0819153 2.9736269e-05   0.29614018            0            0   0.29614018    1.5823011    1.8784413    4.9234352 
 2160000    1.0321984 2.8917927e-05    0.3927574 0.00033781766            0   0.39241958    1.5095902    1.9023476    4.8635433 
 2165000    1.0039268 7.1974746e-05   0.43255586  0.033822519            0   0.39873335     1.468243    1.9007988    9.2710128 
 2170000   0.93506781 1.914003e-05   0.51053871  0.033711516            0   0.47682719    1.3675367    1.8780754    3.8380144 
 2175000    1.0079884 -5.4472132e-05   0.43770109 0.0013156776            0   0.43638542     1.474183    1.9118841   -3.6660622 
 2180000    1.1200956 1.7744365e-05   0.29112751 0.00019384505            0   0.29093367    1.6381398    1.9292673    3.7462903 
 2185000    1.0004143 2.5545785e-05   0.48484319  0.009610204            0   0.47523298    1.4631059    1.9479491    4.5638375 
 2190000    1.0182995 -3.6914823e-05   0.44264259  0.031554702            0   0.41108789     1.489263    1.9319056   -1.8481722 
 2195000   0.95168968 -3.9202259e-05    0.5330795  0.054944936            0   0.47813456    1.3918462    1.9249257   -2.0893856 
 2200000    1.0304653 1.7991412e-05   0.41392214  0.010713929            0   0.40320821    1.5070556    1.9209777    3.7632983 
 2205000     1.014086 2.4945735e-05   0.39395573 0.0085433342            0    0.3854124    1.4831008    1.8770566    4.4314999 
 2210000   0.97604104 -1.6623815e-05   0.43616077  0.015303743            0   0.42085703      1.42746    1.8636208   0.16134214 
 2215000   0.98047409 -5.6218883e-05   0.39968291  0.031414339            0   0.36826857    1.4339434    1.8336263   -3.9231874 
 2220000   0.92921895 -7.5287928e-05   0.48393438   0.01102452            0   0.47290986    1.3589827    1.8429171   -5.8665667 
 2225000    1.1108857 -1.624128e-05   0.25875043  0.017106588            0   0.24164384    1.6246704    1.8834208   0.22031378 
 2230000   0.94322775 5.9248895e-05   0.51529747  0.019992433            0   0.49530504    1.3794706    1.8947681    7.9618549 
 2235000   0.97355951 2.7901086e-05   0.44157156  0.013141114            0   0.42843044    1.4238308    1.8654023    4.7224735 
 2240000    0.8939421 -2.4045849e-06   0.54870405 0.0071056337            0   0.54159841    1.3073903    1.8560944    1.6098649 
 2245000   0.94322749 5.9952467e-05   0.47279739 0.0018478714            0   0.47094952    1.3794702    1.8522676    7.9914003 
 2250000   0.91293074 2.4488322e-05   0.49261585   0.00317986            0   0.48943599    1.3351612    1.8277771    4.3353813 
 2255000   0.94533275 -3.3126563e-05   0.41496537  0.041913535            0   0.37305184    1.3825492    1.7975145   -1.5946455 
 2260000   0.86695208 2.9825708e-05   0.50538921  0.050621077            0   0.45476813    1.2679174    1.7733066    4.8274591 
 2265000   0.85213282 -3.463537e-05   0.48854971 0.0094316505            0   0.47911806    1.2462442     1.734794   -1.8118679 
 2270000   0.92338498 3.3619078e-05   0.44021124 0.0036726941            0   0.43653854    1.3504505    1.7906618    5.2332554 
 2275000   0.89413597 5.6353489e-05   0.50899704 0.0048597396            0    0.5041373    1.3076739    1.8166709    7.5872682 
 2280000   0.90489317 -9.3911464e-05   0.49532471 0.0094307109            0     0.485894    1.3234063     1.818731   -7.7978029 
 2285000   0.97990278 -6.6283639e-05   0.37807475  0.014494634            0   0.36358012    1.4331078    1.8111826   -4.9762621 
 2290000   0.90339947 4.3599369e-05   0.48095198 0.0042600392            0   0.47669194    1.3212217    1.8021737     6.266749 
 2295000   0.91254461 -4.246925e-05   0.45050136            0            0   0.45050136    1.3345965    1.7850978   -2.5637534 
 2300000   0.92968367 -3.0902194e-05    0.3924504 8.0660842e-05            0   0.39236974    1.3596624    1.7521128   -1.4122719 
 2305000   0.86776175 5.8014987e-05   0.44078711  0.017685954            0   0.42310115    1.2691016    1.7098887    7.6506233 
 2310000   0.82305205 -4.9540014e-06   0.50122433  0.038214511            0   0.46300982    1.2037136    1.7049379    1.1976482 
 2315000    0.9447344 -3.2419077e-06    0.3263925  0.049935446            0   0.27645706    1.3816741    1.7080666    1.3760952 
 2320000   0.88381736 5.8170643e-05   0.41273505  0.055964068            0   0.35677098    1.2925829    1.7053179    7.6619917 
 2325000   0.82524382 -7.3224647e-05   0.48974362   0.04893872            0    0.4408049    1.2069191    1.6966627   -5.8015411 
 2330000   0.89121313 -3.8823268e-05   0.36731898  0.028108394            0   0.33921058    1.3033992    1.6707182   -2.3047845 
 2335000   0.90994112 1.6293194e-05   0.31751203 0.00063792409            0   0.31687411    1.3307889    1.6483009     3.316724 
 2340000   0.93077675 3.5909226e-05   0.29964417 0.0053191627            0     0.294325     1.361261    1.6609052    5.3380099 
 2345000   0.91132315 -3.9200396e-07    0.3245357  0.028860553            0   0.29567514    1.3328101    1.6573458    1.6172046 
 2350000   0.85680006 -4.8592143e-05   0.41002381  0.015918582            0   0.39410523    1.2530701    1.6630939   -3.3127416 
 2355000   0.89549988 -3.6642183e-05   0.39946922 0.0027762922            0   0.39669293    1.3096686    1.7091378   -2.0430218 
 2360000   0.92506456 -5.2495657e-05   0.39283244 0.00034591041            0   0.39248653    1.3529069    1.7457394   -3.6298159 
 2365000   0.89731114 -5.5806438e-05   0.44333779  0.019408716            0   0.42392907    1.3123175    1.7556553   -3.9589239 
 2370000   0.87174723 2.9210812e-05   0.49844342  0.058687481            0   0.43975594    1.2749303    1.7733737    4.7645609 
 2375000   0.83742693 4.5059533e-05   0.57351426  0.067769497            0   0.50574476    1.2247369    1.7982511    6.4123474 
 2380000    0.8950131 -4.1472147e-05   0.48962257   0.05200899            0   0.43761358    1.3089567    1.7985792   -2.4481686 
 2385000   0.84268025 -6.2904917e-05   0.53829111  0.036695643            0   0.50159546    1.2324199     1.770711   -4.6707526 
 2390000   0.88888457 3.1379352e-05   0.42371313  0.028625613            0   0.39508752    1.2999937    1.7237068    4.9369525 
 2395000   0.81064431 7.0659661e-05      0.53752   0.01067309            0   0.52684691    1.1855673    1.7230873    8.9586365 
 2400000   0.85472197 1.0766373e-05    0.4723243  0.011360384            0   0.46096391    1.2500309    1.7223552    2.8248318 
 2405000   0.76243075 -4.342795e-05   0.56243954  0.018782606            0   0.54365693     1.115055    1.6774945   -2.7695276 
 2410000   0.90085058 -2.6783993e-05   0.34365135 0.0042653339            0   0.33938601     1.317494    1.6611453   -1.0815355 
 2415000   0.84178173 1.2498055e-05   0.41228065   0.01358572            0   0.39869493    1.2311058    1.6433864    2.9231873 
 2420000    0.7531349 3.7575576e-05    0.5214432  0.027584256            0   0.49385895    1.1014598     1.622903    5.4706419 
 2425000   0.87677985 -4.4864233e-06   0.36968594 0.0062705204            0   0.36341542    1.2822905    1.6519765    1.1925667 
 2430000   0.89816553 -5.0624686e-05   0.35693132            0            0   0.35693132    1.3135671    1.6704984   -3.5134695 
 2435000   0.85710854 -1.4499971e-05   0.45804817 7.1028707e-06            0   0.45804107    1.2535212    1.7115694   0.22677234 
 2440000   0.88379146 2.7027222e-05   0.43338827 0.00092534182            0   0.43246293     1.292545    1.7259333    4.4935208 
 2445000   0.84321405 2.5079565e-05   0.48926902  0.038050373            0   0.45121865    1.2332005    1.7224696     4.290617 
 2450000   0.90055392 5.8302578e-06   0.39394141  0.018900802            0    0.3750406    1.3170601    1.7110015    2.3080199 
 2455000   0.91452451 -4.0525687e-05   0.37293487 9.9679006e-06            0    0.3729249    1.3374921     1.710427   -2.4394034 
 2460000   0.79612895 -3.070991e-05   0.52450544            0            0   0.52450544    1.1643386     1.688844   -1.4558507 
 2465000   0.91619388 -4.4912253e-07   0.35362492            0            0   0.35362492    1.3399336    1.6935585    1.6475683 
 2470000   0.88913863 -2.8277856e-05   0.37717729 6.7479791e-06            0   0.37717055    1.3003652    1.6775425   -1.2181099 
 2475000   0.78914975 1.7674497e-05   0.54587553 0.0096677642            0   0.53620777    1.1541315     1.700007    3.5098755 
 2480000   0.77764483 8.7268064e-05   0.56595245  0.028110917            0   0.53784153    1.1373056     1.703258    10.639508 
 2485000   0.84423306 2.5781558e-05   0.47036289 0.0076788173            0   0.46268407    1.2346909    1.7050537    4.3450853 
 2490000   0.86958085 -9.2301026e-06    0.4181047  0.021139614            0   0.39696508     1.271762    1.6898667   0.74470419 
 2495000   0.79507332 4.4149457e-06   0.53813155  0.017669751            0   0.52046179    1.1627947    1.7009263    2.1530167 
 2500000   0.81039756 -3.3704964e-05   0.51591777 0.00043149563            0   0.51548628    1.1852064    1.7011242   -1.7502641 
 2505000   0.79002637 -1.5556037e-05   0.52778003            0            0   0.52778003    1.1554136    1.6831936  0.090255441 
 2510000   0.79016606 -1.8577065e-05    0.5220844 0.00040078825            0   0.52168361    1.1556179    1.6777023  -0.22458919 
 2515000   0.85135558 -2.7986748e-05   0.43361027 0.0020534433            0   0.43155683    1.2451075    1.6787178   -1.1871252 
 2520000     0.867369 3.809541e-05   0.39491931  0.010538808            0   0.38438051    1.2685272    1.6634465    5.5644164 
 2525000   0.83876632 3.2936475e-05   0.44581562  0.028163486            0   0.41765213    1.2266957    1.6725114    5.0452064 
 2530000   0.92545415 -1.1609684e-06    0.3191189 0.0080987881            0   0.31102011    1.3534767    1.6725956    1.5537124 
 2535000   0.90837295 4.4865177e-05   0.35656527 0.0023897734            0    0.3541755    1.3284954    1.6850607    6.2792548 
 2540000   0.91587908 4.6344532e-05   0.35916927 0.0036722444            0   0.35549703    1.3394732    1.6986424    6.4443225 
 2545000    0.8973688 -1.4725333e-05   0.41846793 0.0027582365            0   0.41570969    1.3124019    1.7308698   0.22299571 
 2550000   0.80953173 3.8490575e-06   0.49621151 0.00022230831            0    0.4959892    1.1839402    1.6801517    2.0742952 
 2555000   0.83763357 -1.5748856e-05   0.46549385 9.377929e-05            0   0.46540008    1.2250391     1.690533  0.077850093 
 2560000   0.87617951 -5.2721216e-05    0.4078572 0.0025613679            0   0.40529583    1.2814125    1.6892697   -3.7093828 
 2565000   0.79119579 -1.7283608e-05   0.57725231  0.012727718            0   0.56452459    1.1571238    1.7343762 -0.035465259 
 2570000   0.83467069 -1.0630152e-05   0.53820929   0.02098851            0   0.51722078    1.2207059    1.7589152   0.67038756 
 2575000   0.90976514 4.0918369e-05   0.40176907 0.0079821767            0    0.3937869    1.3305315    1.7323006    5.9223416 
 2580000    0.8981524 -1.4964711e-05   0.42674241  0.016959115            0    0.4097833    1.3135479    1.7402903   0.20790391 
 2585000   0.87533324 -5.1778343e-05   0.43703338  0.018247524            0   0.41878585    1.2801749    1.7172082   -3.5848941 
 2590000   0.86636431 -6.8436864e-06   0.43288927  0.002542914            0   0.43034635    1.2670578    1.6999471   0.99915359 
 2595000   0.87736381 -5.7976809e-05   0.45753248            0            0   0.45753248    1.2831446     1.740677   -4.1961482 
 2600000   0.92219216 -2.5108656e-06   0.40265864 0.00078628726            0   0.40187235     1.348706    1.7513647     1.494252 
 2605000   0.85236354 1.2634595e-05   0.50672196  0.038615153            0   0.46810681    1.2465817    1.7533036    3.0470862 
 2610000   0.84703115 -6.5519914e-06   0.49521058  0.045624121            0   0.44958646    1.2387831    1.7339936    1.0630697 
 2615000    0.8844553 -7.7208531e-06   0.47227628 0.0047171642            0   0.46755912    1.2935159    1.7657922   0.97517681 
 2620000    0.8903797 -2.4398503e-05   0.45753286 0.00031093252            0   0.45722193    1.3021803    1.7597132  -0.73869352 
 2625000    1.0042481 -2.2163162e-05   0.24723122            0            0   0.24723122    1.4687128    1.7159441  -0.55356375 
 2630000   0.94501912 -1.8046966e-05   0.34842543            0            0   0.34842543    1.3820905    1.7305159  -0.11749337 
 2635000   0.84960967 2.5893192e-05   0.49351008 0.0012421877            0   0.49226789    1.2425541    1.7360642    4.3875271 
 2640000   0.85918388 4.9409893e-05   0.47702916  0.013824366            0    0.4632048    1.2565564    1.7335856    6.7931587 
 2645000   0.88440413 -2.6537645e-05   0.38902565  0.015577745            0   0.37344791     1.293441    1.6824667   -1.0349882 
 2650000     0.898783 1.2369513e-05    0.3653147  0.014077094            0   0.35123761    1.3144701    1.6797848     2.946423 
 2655000   0.95876615 1.0709595e-05   0.30025577  0.017989171            0    0.2822666    1.4021955    1.7024513    2.7991138 
 2660000    0.9053226 -9.1091356e-05   0.36347584 0.0032674582            0   0.36020838    1.3240343    1.6875101   -7.6402448 
 2665000   0.91740676 1.1465228e-05    0.3929368            0            0    0.3929368    1.3417074    1.7346442    2.9086836 
 2670000   0.94055938 -3.4564231e-05   0.35500591            0            0   0.35500591    1.3755681     1.730574   -1.8088033 
 2675000   0.89306607 2.1970198e-05   0.41684652 0.0011711266            0   0.41567539    1.3061091    1.7229556    3.9727039 
 2680000   0.88954734 -2.3589568e-05   0.42958997 0.0065132033            0   0.42307677     1.300963     1.730553  -0.68501886 
 2685000    1.0089706 2.7119292e-05    0.2959109 0.0041487948            0   0.29176211    1.4756196    1.7715305    4.5485459 
 2690000   0.96835097 -2.345148e-05   0.35219322 0.00022225392            0   0.35197096    1.4162133    1.7684065  -0.63302508 
 2695000   0.84819844 -5.3134418e-05   0.45856747 0.0024111887            0   0.45615628    1.2404902    1.6990577   -3.7419067 
 2700000   0.80779866 8.6520418e-05   0.54878506  0.031431883            0   0.51735318    1.1814055    1.7301906    10.589881 
 2705000   0.86429538 -3.2937076e-05   0.48711137  0.020176604            0   0.46693477     1.264032    1.7511434   -1.6216132 
 2710000   0.89137998 -2.6641911e-05   0.41958975 7.2831429e-06            0   0.41958247    1.3036432     1.723233   -1.0048988 
 2715000   0.96440234 2.5042869e-05   0.31574739            0            0   0.31574739    1.4104384    1.7261858    4.2905756 
 2720000   0.94700468 5.267858e-05   0.30782985            0            0   0.30782985    1.3849943    1.6928242    7.0871108 
 2725000   0.89094646 4.5152592e-05    0.3556355 0.0045819997            0    0.3510535    1.3030092    1.6586447    6.2822701 
 2730000   0.89236462 2.4632339e-05   0.38693704  0.043361303            0   0.34357574    1.3050833    1.6920203    4.2143718 
 2735000   0.92683419 9.2321352e-05   0.34959337  0.018717764            0   0.33087561     1.355495    1.7050884    11.158795 
 2740000   0.93951253 6.9477081e-06   0.31366761 0.00028816042            0   0.31337945    1.3740371    1.6877047      2.39915 
 2745000   0.98609939 -2.1107161e-05   0.25459585            0            0   0.25459585    1.4421704    1.6967662  -0.46460708 
 2750000   0.94582916 -6.7082034e-05   0.32310489 0.00018122516            0   0.32292366    1.3832751      1.70638   -5.1628202 
 2755000   0.89451984 3.1828497e-05   0.42274178 0.0087575005            0   0.41398428    1.3082353     1.730977    4.9902152 
 2760000   0.87327139 1.3251586e-05   0.46887172  0.041603544            0   0.42726817    1.2771594    1.7460311    3.1029936 
 2765000   0.88034948 2.1703262e-05   0.46166518  0.046254239            0   0.41541094    1.2875111    1.7491763    3.9715904 
 2770000   0.97274587 -7.2432431e-06   0.35305368  0.002677167            0   0.35037652    1.4226408    1.7756945    1.0339864 
 2775000   0.95411226 2.8458986e-06   0.38959641 0.0052667395            0   0.38432967    1.3953892    1.7849856    2.0764056 
 2780000   0.95330658 6.5881875e-05   0.44978507 0.0045470388            0   0.44523803    1.3942109    1.8439959    8.5902999 
 2785000    1.0308694 1.4915408e-05   0.36254213 0.0069732152            0   0.35556891    1.5076465    1.8701887    3.3975265 
 2790000   0.98672332 1.7863409e-05    0.4849414  0.025759962            0   0.45918144    1.4430829    1.9280243    3.7572374 
 2795000   0.93138746 -2.1405954e-05   0.57140785    0.1485621            0   0.42284575    1.3621542     1.933562  -0.25840764 
 2800000   0.92946155 -7.1885232e-05   0.56492366  0.074759949            0   0.49016371    1.3593375    1.9242612   -5.4367866 
 2805000   0.96807121 -3.9766324e-05    0.4855973  0.018397763            0   0.46719954    1.4158041    1.9014014   -2.1706702 
 2810000   0.99454473 -0.00011210979   0.45641553 0.0073391959            0   0.44907633    1.4545217    1.9109372   -9.5691051 
 2815000    1.0190117 -6.332922e-05   0.40928223  0.014981576            0   0.39430066    1.4903046    1.8995869   -4.5853253 
 2820000    1.0353064 2.9899308e-05   0.38662957 0.0038575132            0   0.38277206    1.5141356    1.9007651    4.9624542 
 2825000   0.99824283 -1.7082879e-05   0.41947633            0            0   0.41947633    1.4599301    1.8794065   0.13011965 
 2830000   0.97946546 -1.6730913e-05    0.4493197  0.003380719            0   0.44593898    1.4324682    1.8817879   0.16854244 
 2835000   0.93224299 2.7519582e-05   0.52106859  0.023923478            0   0.49714511    1.3634054     1.884474    4.7024792 
 2840000   0.92302394 -1.0671007e-05    0.5419146  0.034348861            0   0.50756574    1.3499225    1.8918371   0.79912597 
 2845000   0.98347519 1.5910249e-05     0.488279  0.072812823            0   0.41546617    1.4383325    1.9266115    3.5558209 
 2850000    0.9787962 5.5805174e-05   0.46394213  0.036727354            0   0.42721477    1.4314894    1.8954316    7.6098814 
 2855000   0.95497665 9.0970986e-06   0.54414236  0.037068879            0   0.50707348    1.3966534    1.9407957    2.8723386 
 2860000    1.0222151 -5.1753723e-06   0.45149001  0.020481954            0   0.43100805    1.4949895    1.9464795    1.4165214 
 2865000   0.99139989 6.2006776e-06    0.4791035  0.018434035            0   0.46066946    1.4499223    1.9290258    2.5639752 
 2870000   0.98498535 -4.0166595e-05   0.51681176  0.097225068            0   0.41958669    1.4405411    1.9573528   -2.1557065 
 2875000    1.0398864 -8.2404152e-06   0.49132484  0.052939391            0   0.43838545    1.5208338    2.0121586    1.1683401 
 2880000    1.0624744 5.0886973e-05    0.5005443  0.048531453            0   0.45201284    1.5538688    2.0544131    7.2652391 
 2885000    1.0170628 3.3312484e-05   0.57227477  0.046050027            0   0.52622474    1.4874543    2.0597291    5.4709275 
 2890000    1.0376137 3.8800938e-05   0.55375155  0.029546481            0   0.52420507    1.5175101    2.0712616    6.0444776 
 2895000    1.1098618 2.416134e-05   0.44180838  0.015046963            0   0.42676141    1.6231728    2.0649812    4.5391024 
 2900000    1.0305898 -3.5775818e-06   0.49520067  0.022876817            0   0.47232385    1.5072376    2.0024383    1.6360939 
 2905000    1.0192713 -1.5773952e-05   0.55746587  0.026474243            0   0.53099162    1.4906843    2.0481502    0.4328975 
 2910000    1.0215282 -1.4574824e-05   0.51890159  0.011639208            0   0.50726238     1.493985    2.0128866   0.52042461 
 2915000     1.079387 3.2028925e-06   0.44058381  0.088033923            0   0.35254988    1.5786035    2.0191873    2.3471635 
 2920000   0.95672689 -1.7397847e-05   0.60018329    0.1045776            0   0.49560569    1.3992131    1.9993964   0.21785682 
 2925000    1.0687853 1.4939417e-05   0.48133185  0.026572199            0   0.45475965    1.5630985    2.0444303    3.5742266 
 2930000    1.0769981 0.00010399423   0.47185193 0.0092567584            0   0.46259517    1.5751097    2.0469617    12.695971 
 2935000    1.1485708 3.5906982e-06   0.42210935 0.00043485601            0   0.42167449    1.6797847    2.1018941    2.4695816 
 2940000    1.1175184 3.087407e-05   0.46732348  0.007485421            0   0.45983806    1.6343707    2.1016942    5.2631989 
 2945000   0.97791886 1.0743495e-05   0.62876113   0.05633098            0   0.57243015    1.4302063    2.0589675    3.1591014 
 2950000    1.0837804 3.2554627e-05   0.43927731  0.045708278            0   0.39356903    1.5850289    2.0243062       5.3579 
 2955000    1.1322662 1.8903567e-05   0.33661619  0.015700169            0   0.32091602    1.6559393    1.9925555    3.9282808 
 2960000   0.92101382 -1.9475704e-05   0.65181355  0.018589992            0   0.63322356    1.3469827    1.9987963 0.0044841531 
 2965000    1.1290699 3.8310725e-05   0.33178691  0.017405116            0   0.31438179    1.6512648    1.9830517      5.90607 
 2970000    1.0034545 1.9313756e-05   0.52710969   0.08135891            0   0.44575078    1.4675522    1.9946619    3.9723905 
 2975000   0.95824572 -7.9215107e-05   0.60695686   0.05342946            0    0.5535274    1.4014344    2.0083912   -6.1032357 
 2980000    1.0675744 -6.7103512e-05   0.41851951  0.040609644            0   0.37790987    1.5613276    1.9798471   -4.8915525 
 2985000   0.95103995 1.9009836e-05   0.63164418  0.021488561            0   0.61015562    1.3908959    2.0225401    3.9691473 
 2990000    1.1433704 3.074174e-05    0.3830944  0.016782944            0   0.36631146    1.6721792    2.0552736    5.2032279 
 2995000    1.0947895 -3.2178232e-05   0.45086973  0.065387687            0   0.38548204    1.6011296    2.0519993   -1.2430517 
[...]
19285000    1.0162295 -9.6573406e-06   0.63341325  0.065322389            0   0.56809086    1.4862356    2.1196489    1.1307372 
19290000   0.94750188 4.5944045e-05   0.72776735     0.100861            0   0.62690635    1.3857215    2.1134888    6.8181591 
19295000    1.0701429 -3.2793406e-05   0.57421718  0.059618447            0   0.51459873     1.565084    2.1393012   -1.2187436 
19300000    1.0412975 -9.2657657e-05   0.60494965   0.01655137            0   0.58839828    1.5228975    2.1278472   -7.3602969 
19305000    1.0721233 5.9250001e-05   0.59987307            0            0   0.59987307    1.5679804    2.1678535    8.2350535 
19310000    1.1435109 -2.0132143e-05   0.45665815 0.00064029745            0   0.45601785    1.6723847    2.1290428  0.067511413 
19315000    1.0440499 -6.4548439e-05   0.63337741 0.0040223507            0   0.62935506     1.526923    2.1603004   -4.4494598 
19320000    1.0140248 -2.7107665e-05   0.70528949 0.0028219871            0    0.7024675    1.4830113    2.1883008  -0.58752411 
19325000    1.1464414 -0.00015680643   0.49126591 0.0065564353            0   0.48470947    1.6766706    2.1679365   -13.889042 
19330000    1.1768169 8.7901609e-06   0.45020063 0.0014402063            0   0.44876042    1.7210947    2.1712954    3.0714078 
19335000    1.0464967 4.4189569e-05   0.59863288 0.00086535773            0   0.59776752    1.5305014    2.1291343    6.6541461 
19340000    1.0839913 -2.3525879e-05   0.54045294  0.016912603            0   0.52354033    1.5853372    2.1257901  -0.28325981 
19345000    1.1186594 5.138729e-05   0.47884013  0.018797674            0   0.46004246    1.6360393    2.1148795    7.3769379 
19350000    1.0842027 1.7840089e-05   0.49486035 0.0071049267            0   0.48775542    1.5856464    2.0805068    3.9073319 
19355000   0.97763462 2.9871909e-05   0.67306744  0.048349433            0   0.62471801    1.4297906    2.1028581    5.1617416 
19360000   0.94435461 -6.4246571e-05   0.70956361  0.068260534            0   0.64130307    1.3811186    2.0906822   -4.4881666 
19365000    1.0102303 7.3221003e-05   0.61173578  0.057786977            0    0.5539488    1.4774618    2.0891976    9.5870283 
19370000   0.99002842 2.4159322e-06   0.64693678  0.019786242            0   0.62715053    1.4479166    2.0948533    2.3422448 
19375000    1.0730268 7.8909529e-06   0.53334034  0.020881577            0   0.51245876    1.5693017     2.102642    2.9106756 
19380000    1.0672378 -9.3257851e-05   0.59641331  0.015524124            0   0.58088919    1.5608353    2.1572487   -7.3923553 
19385000    1.1072506 4.8486614e-05   0.55304915 0.0011118685            0   0.55193728     1.619354    2.1724032    7.1374325 
19390000    1.1129076 -4.4753173e-05   0.56463948 0.00096212813            0   0.56367735    1.6276273    2.1922668   -2.3904582 
19395000    1.1165057 -3.1698257e-05    0.5967983 0.0078258161            0   0.58897248    1.6328895    2.2296878   -1.0162137 
19400000    1.1715629 -3.7248375e-05   0.53956208  0.014198968            0   0.52536311    1.7134107    2.2529728   -1.5612608 
19405000    1.0489571 5.8480446e-05   0.70578671  0.019217946            0   0.68656876    1.5340997    2.2398864    8.2282841 
19410000     1.057778 0.00010729811   0.68703916  0.044208948            0   0.64283022    1.5470004    2.2340395    13.221366 
19415000    1.0111661 -8.6993491e-05   0.75971059  0.067420512            0   0.69229007    1.4788304    2.2385409   -6.6695925 
19420000    1.0366194 3.9478724e-05   0.68403304  0.052859004            0   0.63117404    1.5160559     2.200089    6.2427103 
19425000    1.0379776 0.00017804559   0.62997965  0.026572609            0   0.60340704    1.5180422    2.1480219    20.379891 
19430000    1.1139799 3.3633442e-05   0.49978405 0.0028061356            0   0.49697791    1.6291956    2.1289797    5.5730442 
19435000    1.0141157 -7.1909243e-05   0.64874952            0            0   0.64874952    1.4831442    2.1318938   -5.2316127 
19440000    1.0000257 -0.00013769952   0.66798922 0.00016878143            0   0.66782044    1.4625376    2.1305268   -11.969904 
19445000   0.96727333 5.1036276e-05   0.69684704  0.012233772            0   0.68461326    1.4146372    2.1114843     7.337599 
19450000    1.1065044 9.1152636e-05   0.51952621  0.025967822            0   0.49355839    1.6182627     2.137789    11.471819 
19455000    1.0665261 -3.2584893e-05   0.57759268  0.039962392            0   0.53763029    1.5597944     2.137387    -1.199306 
19460000    1.1369916 3.8416376e-05   0.50638347   0.11825338            0   0.38813009    1.6628502    2.1692337    6.1030706 
19465000    1.1795693 2.0754724e-05   0.46158041  0.010724224            0   0.45085618    1.7251201    2.1867005    4.3119843 
19470000     1.118504 -8.5261422e-05   0.56278125 0.0017748454            0   0.56100641     1.635812    2.1985933   -6.5321763 
19475000    1.1128659 7.5524129e-06   0.56994946  0.013505721            0   0.55644374    1.6275663    2.1975158    2.9708829 
19480000    1.1430837 6.6074706e-07   0.55302829  0.037367893            0    0.5156604    1.6717599    2.2247882    2.2924487 
19485000    1.1738274 -2.2709725e-05   0.50584169 0.0094185854            0    0.4964231    1.7167225    2.2225642  -0.10291163 
19490000    1.1504497 0.00010321316   0.50966839            0            0   0.50966839    1.6825326     2.192201    12.761228 
19495000    1.1331593 -1.6929156e-05   0.55406185 0.00036357908            0   0.55369827    1.6572455    2.2113074   0.47776176 
19500000    1.1296237 3.9979968e-05   0.56347924 0.0037116755            0   0.55976757    1.6520746    2.2155539    6.3095026 
19505000    1.1695512 3.7522286e-05   0.52507298 0.0077601972            0   0.51731278    1.7104687    2.2355417    6.0778237 
19510000    1.1539633 -1.3053198e-05   0.55386803 0.0098726158            0   0.54399542    1.6876713    2.2415394   0.90489192 
19515000    1.1308957 4.8748088e-05   0.62081391 0.0085867621            0   0.61222715     1.653935    2.2747489    7.2665531 
19520000    1.1824223 -2.9635915e-05   0.53800541  0.016295688            0   0.52170972    1.7292926     2.267298   -0.7674197 
19525000    1.1495461 -6.0609373e-05   0.56291102  0.023404424            0    0.5395066    1.6812112    2.2441222   -3.9622776 
19530000    1.0366088 2.8318239e-05   0.75368589 0.0097520736            0   0.74393382    1.5160404    2.2697263     5.169514 
19535000    1.1327023 -1.024799e-05   0.60105558 0.00026166772            0   0.60079391    1.6565771    2.2576326    1.2082385 
19540000    1.1856725 -8.9272933e-05   0.53537132 0.0012485909            0   0.53412273    1.7340461    2.2694174    -6.872131 
19545000    1.1414732 -3.8471435e-05   0.59587812 0.0080200877            0   0.58785803    1.6694046    2.2652827   -1.6741922 
19550000    1.0838796 1.559817e-05   0.66154009  0.075809426            0   0.58573067    1.5851739     2.246714    3.8439666 
19555000    1.0693401 -8.5499602e-05   0.65434365   0.03833246            0   0.61601119    1.5639099    2.2182536   -6.5369057 
19560000    1.2617556 -8.0188606e-05   0.38701064 0.0043268983            0   0.38268374    1.8453176    2.2323283    -5.978985 
19565000    1.1173752 -3.1035637e-05   0.53165626            0            0   0.53165626    1.6341612    2.1658175   -1.0122317 
19570000    1.0335915 -6.0701067e-05   0.64558749 0.00075095607            0   0.64483653    1.5116275     2.157215   -4.0585742 
19575000    1.0983941 -5.0748612e-05   0.59629465 0.0053460115            0   0.59094864    1.6064014     2.202696   -2.9939618 
19580000    1.0743629 -4.4550122e-05   0.60624335 0.0053980683            0   0.60084528    1.5712557     2.177499   -2.3844335 
19585000     1.022532 0.00016088753   0.69588068 0.0046976976            0   0.69118298     1.495453    2.1913337    18.666217 
19590000    1.0635219 -1.9507068e-05   0.59793894  0.084721792            0   0.51321715    1.5554008    2.1533397   0.15581595 
19595000    1.0719707 -3.5226177e-05   0.54557713  0.059421049            0   0.48615608    1.5677571    2.1133342   -1.4938263 
19600000    1.0845472 0.00010818987   0.50863842 0.0023302367            0   0.50630819    1.5861503    2.0947887    13.173432 
19605000    1.1037543 -4.3990614e-05   0.48754627  0.053455133            0   0.43409114    1.6142407     2.101787   -2.4028519 
19610000    1.1169945 -6.9146342e-05   0.43227573  0.050981793            0   0.38129394    1.6336045    2.0658802   -5.0147052 
19615000    1.0021397 -4.070461e-05   0.62986659 0.0092319446            0   0.62063465    1.4656293    2.0954959   -2.0726561 
19620000    1.0884926 -6.6570994e-05   0.45374638 0.0079708693            0   0.44577551    1.5919204    2.0456668    -4.771203 
19625000    1.0195492 2.0789229e-05   0.54804781  0.025258813            0     0.522789    1.4910907    2.0391385    4.1679555 
19630000   0.99654702 5.1021753e-05   0.60343066 0.0083535588            0    0.5950771      1.45745    2.0608807    7.2855081 
19635000    1.0378825 -6.5334137e-05   0.53267242            0            0   0.53267242    1.5179032    2.0505756     -4.63964 
19640000    1.0863692 -2.2080033e-06   0.44158229 0.00035442845            0   0.44122786     1.588815    2.0303973    1.8042977 
19645000   0.97664072 0.00013923598   0.58737548  0.012586794            0   0.57478869    1.4283371    2.0157125    16.273477 
19650000   0.87527322 -6.2526418e-05   0.69971715  0.035928358            0    0.6637888    1.2800871    1.9798042    -4.422901 
19655000    1.0149522 0.00012086137   0.50361856 0.00011770527            0   0.50350085    1.4843676    1.9879862     14.36419 
19660000     1.006995 6.4816307e-05   0.49852485 0.0019047172            0   0.49662013    1.4727302     1.971255    8.6084449 
19665000    1.0430862 1.0691037e-05   0.44628786  0.020540015            0   0.42574785    1.5255136    1.9718015    3.0665637 
19670000   0.97482071 -9.7685096e-05   0.54254815  0.018206461            0   0.52434169    1.4256753    1.9682234   -8.0347304 
19675000   0.92384354 -7.829995e-05   0.59276095            0            0   0.59276095    1.3511212    1.9438821   -6.0740328 
19680000    1.0504735 2.9293077e-05   0.40382783            0            0   0.40382783    1.5363175    1.9401453    4.9397565 
19685000    0.9492716 -8.8655419e-05   0.55464201  0.039517976            0   0.51512404    1.3883097    1.9429517   -7.1353632 
19690000   0.93947215 -5.4782807e-05   0.55808636  0.055817546            0   0.50226882     1.373978    1.9320644   -3.6776951 
19695000   0.92200879 5.1310253e-05   0.56512198            0            0   0.56512198    1.3484378    1.9135598    7.1677297 
19700000    1.0290903 -0.00010522704   0.44417698 0.0011191581            0   0.44305782    1.5050446    1.9492216   -8.8260268 
19705000   0.97116905 -9.632066e-06   0.48674204 0.0041810021            0   0.48256104    1.4203347    1.9070768   0.92075323 
19710000   0.92534726 8.2097965e-05   0.53082892 0.0018272928            0   0.52900163    1.3533204    1.8841493    10.290981 
19715000    1.0246147 -5.7401729e-05   0.41534176            0            0   0.41534176    1.4984991    1.9138408   -3.9640963 
19720000   0.98987588 5.1202574e-05   0.48610398 2.8343336e-05            0   0.48607564    1.4476935    1.9337975    7.1769411 
19725000   0.88031928 -7.9820369e-05    0.6731421  0.017521825            0   0.65562027    1.2874669     1.960609   -6.2129967 
19730000   0.95741872 -9.5416815e-05   0.59137142   0.01940217            0   0.57196925    1.4002249    1.9915963   -7.7790855 
19735000    1.1154317 7.1182192e-05   0.35826792 0.0045403252            0    0.3537276    1.6313188    1.9895868    9.2786433 
19740000     1.036534 -4.7837515e-08   0.45815014 7.5483625e-06            0   0.45814259    1.5159309     1.974081    1.9691825 
19745000   0.94754862 -2.8971148e-05   0.56182357            0            0   0.56182357    1.3857899    1.9476134   -1.0190321 
19750000   0.90901972 -0.00012100139   0.64026218            0            0   0.64026218    1.3294413    1.9697035   -10.420839 
19755000   0.98647723 -0.00012095688   0.56053959            0            0   0.56053959     1.442723    2.0032625   -10.382722 
19760000    1.0429157 8.4931617e-05   0.49887914            0            0   0.49887914    1.5252642    2.0241434    10.721141 
19765000    1.0720813 2.4595283e-05   0.49350452            0            0   0.49350452    1.5679189    2.0614235    4.5799805 
19770000    1.0193501 -7.3891619e-05   0.62734655            0            0   0.62734655    1.4907995     2.118146   -5.4483557 
19775000    1.1419967 -0.00010586545    0.4733852  0.018439316            0   0.45494588    1.6701701    2.1435553   -8.6970671 
19780000    1.0354122 6.721687e-05   0.63678491  0.098491665            0   0.53829324    1.5142903    2.1510752    9.0340827 
19785000     1.265455 -1.3345287e-05   0.31554331    0.0305339            0   0.28500941    1.8507279    2.1662712   0.79971382 
19790000    1.0043234 2.2430525e-05   0.68733517  0.015528449            0   0.67180672     1.468823    2.1561582    4.4530439 
19795000    1.0180597 8.6061848e-05   0.70011854  0.023489824            0   0.67662871    1.4889123    2.1890309    11.001764 
19800000    1.0587924 5.9291973e-05   0.60152646   0.03725475            0   0.56427171    1.5484839    2.1500104    8.2215085 
19805000    1.0259625 -0.00011659509   0.64254125   0.01450248            0   0.62803877    1.5004701    2.1430114   -9.7963262 
19810000    1.0604199 -4.5433806e-05   0.58477666 0.00090408252            0   0.58387258    1.5508641    2.1356407    -2.516781 
19815000    1.1436185 3.4438958e-05   0.49705984  0.024350709            0   0.47270913     1.672542    2.1696018    5.6961511 
19820000   0.99007052 9.2961454e-05   0.76062851  0.064739066            0   0.69588944    1.4479781    2.2086066     11.72786 
19825000     1.042539 9.0581968e-05   0.69271782 0.00015849393            0   0.69255932    1.5247133    2.2174312    11.493025 
19830000    1.1209749 8.0073935e-05   0.65372254            0            0   0.65372254    1.6394258    2.2931484    10.492719 
19835000    1.1576978 -1.367602e-05   0.58550282            0            0   0.58550282     1.693133    2.2786358   0.87821137 
19840000    1.1544002 -5.5637977e-06   0.58869354  0.026842342            0    0.5618512    1.6883103    2.2770038     1.707271 
19845000    1.0452514 -3.5352935e-05   0.71532076   0.18600021            0   0.52932054    1.5286802    2.2440009   -1.3761396 
19850000    1.1118085 4.3347805e-05   0.61557789   0.05524823            0   0.56032966      1.62602    2.2415979    6.6804131 
19855000    1.0400582 -1.6626985e-06    0.6677063 0.0092479114            0   0.65845838    1.5210852    2.1887915    2.0185311 
19860000    1.0852885 -5.6331987e-06   0.59496138  0.021001152            0   0.57396023    1.5872345    2.1821959    1.6053563 
19865000    1.2009218 -3.6458687e-05   0.46007706 0.0060915679            0   0.45398549    1.7563481    2.2164252   -1.5169444 
19870000    1.0546747 5.0064322e-06    0.6382711 0.0050352941            0   0.63323581    1.5424618    2.1807329    2.6933915 
19875000    1.1308482 -4.7254573e-06   0.54687826  0.063897347            0   0.48298091    1.6538654    2.2007437    1.7168569 
19880000    1.1014584 -5.9453823e-05   0.58273589  0.034015194            0   0.54872069    1.6108829    2.1936188   -3.8944527 
19885000    1.1035947 -5.4652049e-05   0.58082826 0.0049523819            0   0.57587588    1.6140072    2.1948355   -3.4015343 
19890000   0.97780608 2.0843897e-05   0.74887485 0.0020400493            0    0.7468348    1.4300414    2.1789162    4.3133313 
19895000    1.1883623 8.7354955e-05   0.48320723 0.00097666026            0   0.48223057    1.7379798    2.2211871    11.166334 
19900000    1.1143029 7.8204185e-06   0.60341003  0.035304308            0   0.56810572     1.629668    2.2330781    3.0338889 
19905000    1.0084995 -4.1722928e-07   0.76176931  0.043995923            0   0.71777339    1.4749306    2.2366999    2.1939756 
19910000   0.99440111  4.81842e-05   0.76732228  0.012116498            0   0.75520578    1.4543116    2.2216339     7.155696 
19915000     1.181832 -8.3749341e-06   0.49442567  0.023521923            0   0.47090375    1.7284293     2.222855    1.3652617 
19920000    1.1203947 -1.2009729e-05   0.56205152  0.058072901            0   0.50397862    1.6385773    2.2006288   0.97083261 
19925000   0.95981976 -2.3132568e-05   0.80831653  0.033308325            0   0.77500821    1.4037364    2.2120529    -0.156722 
19930000    1.1579057 -8.348132e-05   0.51872946  0.045825934            0   0.47290352     1.693437    2.2121665   -6.3363207 
19935000    1.1428009 -6.9048983e-05   0.54351509  0.020831708            0   0.52268339    1.6713463    2.2148614   -4.8557545 
19940000   0.92392078 1.5673294e-05   0.86129184 0.0046716127            0   0.85662022    1.3512341     2.212526    3.8174713 
19945000    1.1510418 8.1559256e-05   0.50403865  0.029876267            0   0.47416238    1.6833986    2.1874373    10.539105 
19950000    1.0297524 5.2225963e-05   0.70026502  0.057594512            0   0.64267051     1.506013     2.206278    7.5542165 
19955000    1.0119725 3.6877531e-05    0.7665542  0.038494911            0   0.72805929    1.4800098     2.246564    6.0228232 
19960000     1.107116 -3.3091161e-05   0.62759524  0.041688428            0   0.58590681    1.6191571    2.2467524   -1.1417825 
19965000     1.136596 -7.908555e-05   0.58061243 0.0060557596            0   0.57455667    1.6622717    2.2428841   -5.8554762 
19970000    1.2387705 -6.9338438e-05   0.45591452            0            0   0.45591452    1.8117019    2.2676164   -4.8326397 
19975000    1.0530476 2.2830798e-05   0.73269603 0.00092586325            0   0.73177016    1.5400821    2.2727781    4.6106518 
19980000    1.1051057 0.00018380497   0.64649026  0.029603951            0   0.61688631     1.616217    2.2627073    21.084336 
19985000    1.1408177 4.0392116e-05   0.57185298  0.039640031            0   0.53221295    1.6684458    2.2402988    6.3764515 
19990000    1.1141867 -4.5831359e-05   0.65466072  0.036223215            0   0.61843751     1.629498    2.2841587   -2.4089725 
19995000    1.1911348 -1.5868876e-05    0.5394687 0.0055313261            0   0.53393737    1.7420346    2.2815033    0.6565304 
20000000     1.158273 -5.1400592e-06    0.6044783  0.000797069            0   0.60368123    1.6939742    2.2984525    1.7721105 
Loop time of 135.536 on 1 procs for 20000000 steps with 40 atoms

Performance: 127493.630 tau/day, 147562.072 timesteps/s
99.4% CPU use with 1 MPI tasks x no OpenMP threads

MPI task timing breakdown:
Section |  min time  |  avg time  |  max time  |%varavg| %total
---------------------------------------------------------------
Pair    | 5.4448     | 5.4448     | 5.4448     |   0.0 |  4.02
Bond    | 14.42      | 14.42      | 14.42      |   0.0 | 10.64
Neigh   | 19.602     | 19.602     | 19.602     |   0.0 | 14.46
Comm    | 49.511     | 49.511     | 49.511     |   0.0 | 36.53
Output  | 0.33044    | 0.33044    | 0.33044    |   0.0 |  0.24
Modify  | 40.944     | 40.944     | 40.944     |   0.0 | 30.21
Other   |            | 5.285      |            |       |  3.90

Nlocal:        40.0000 ave          40 max          40 min
Histogram: 1 0 0 0 0 0 0 0 0 0
Nghost:        0.00000 ave           0 max           0 min
Histogram: 1 0 0 0 0 0 0 0 0 0
Neighs:        12.0000 ave          12 max          12 min
Histogram: 1 0 0 0 0 0 0 0 0 0

Total # of neighbors = 12
Ave neighs/atom = 0.3
Ave special neighs/atom = 5.7000000
Neighbor list builds = 3766
Dangerous builds = 0
write_restart restart.equil
System init for write_restart ...
WARNING: Communication cutoff 1.4200000000000002 is shorter than a bond length based estimate of 1.8. This may lead to errors. (../comm.cpp:667)
#--------------End of Input file ------------------
Total wall time: 0:02:15
