LAMMPS (29 Oct 2020)
###################### polyelectrolyte complexation ######################
clear

#Initialization
#------------------------------------
units				lj
dimension			3
atom_style			full
boundary			p p p

#Atom Definition
#-------------------------------------
read_data			data.complexation
Reading data file ...
  orthogonal box = (-80.000000 -80.000000 -80.000000) to (80.000000 80.000000 80.000000)
  1 by 1 by 1 MPI processor grid
  reading atoms ...
  120 atoms
  scanning bonds ...
  1 = max bonds/atom
  reading bonds ...
  119 bonds
Finding 1-2 1-3 1-4 neighbors ...
  special bond factors lj:    0.0      0.0      0.0     
  special bond factors coul:  0.0      0.0      0.0     
     2 = max # of 1-2 neighbors
     2 = max # of 1-3 neighbors
     4 = max # of 1-4 neighbors
     6 = max # of special neighbors
  special bonds CPU = 0.000 seconds
  read_data CPU = 0.002 seconds

#Force definition
#----------------------------------------------
#Bond definition
bond_style			harmonic
bond_coeff			1 5000 1
#Pair definition
special_bonds	lj 0 1 1
Finding 1-2 1-3 1-4 neighbors ...
  special bond factors lj:    0.0      1.0      1.0     
  special bond factors coul:  0.0      0.0      0.0     
     2 = max # of 1-2 neighbors
     2 = max # of 1-3 neighbors
     4 = max # of 1-4 neighbors
     6 = max # of special neighbors
  special bonds CPU = 0.000 seconds
pair_style		 lj/cut 1.12
pair_modify 		 shift yes
pair_coeff	1 1 1 1 1.12

#Timestep etc
#--------------------------------------------
timestep		1e-05
run_style		verlet
velocity		all	create	1	14

#Fix
#---------------------------------------
group polymers type 1
120 atoms in group polymers
fix 1 all nve
fix 2 all langevin 1	1	10	14
fix 3 polymers recenter INIT INIT INIT units box

#Dump
#------------------------------------------------
compute  1 all gyration
variable  myRg2 equal c_1
variable  i equal step
fix  mythermofile all print 5000 "$i ${myRg2}" file radius_of_gyration.dat screen no

thermo_style		 custom step temp press pe evdwl ecoul ebond ke etotal enthalpy
thermo 	5000
dump	3 all custom 5000 dump.lammpstrj id mol type xu yu zu
run		20000000
Neighbor list info ...
  update every 1 steps, delay 10 steps, check yes
  max neighbors/atom: 2000, page size: 100000
  master list distance cutoff = 1.42
  ghost atom cutoff = 1.42
  binsize = 0.71, bins = 226 226 226
  1 neighbor lists, perpetual/occasional/extra = 1 0 0
  (1) pair lj/cut, perpetual
      attributes: half, newton on
      pair build: half/bin/newton
      stencil: half/bin/3d/newton
      bin: standard
WARNING: Communication cutoff 1.4200000000000002 is shorter than a bond length based estimate of 1.8. This may lead to errors. (../comm.cpp:667)
Per MPI rank memory allocation (min/avg/max) = 54.72 | 54.72 | 54.72 Mbytes
Step Temp Press PotEng E_vdwl E_coul E_bond KinEng TotEng Enthalpy 
       0            1 2.9052734e-05            0            0            0            0       1.4875       1.4875    2.4791667 
    5000   0.78321272 -0.00040403284   0.32324387            0            0   0.32324387    1.1650289    1.4882728   -12.302715 
   10000   0.48379887 -0.00098455463   0.78345276            0            0   0.78345276   0.71965082    1.5031036   -32.103028 
   15000   0.65529546 -0.00062538419   0.53817995            0            0   0.53817995     0.974752     1.512932   -19.833515 
   20000   0.66685839 -0.00049698068   0.53007665            0            0   0.53007665   0.99195186    1.5220285   -15.441579 
   25000   0.54670977 -0.00088848601   0.71746253            0            0   0.71746253   0.81323078    1.5306933   -28.796296 
   30000   0.63884274 -0.00073083056   0.57701824            0            0   0.57701824   0.95027858    1.5272968   -23.418386 
   35000   0.79027522 -0.00029923528    0.3607429            0            0    0.3607429    1.1755344    1.5362773   -8.6776201 
   40000   0.69637998 -0.0004209077   0.48155201            0            0   0.48155201    1.0358652    1.5174172   -12.849566 
   45000   0.68985571 -0.00068700118   0.50638332            0            0   0.50638332    1.0261604    1.5325437   -21.917097 
   50000   0.79690296 -0.00046868371   0.34100242            0            0   0.34100242    1.1853932    1.5263956   -14.471342 
   55000   0.72783536 -0.00023762369   0.46049512            0            0   0.46049512    1.0826551    1.5431502   -6.5677384 
   60000   0.73483728 -0.00037812859   0.45322162            0            0   0.45322162    1.0930705    1.5462921   -11.360497 
   65000   0.74526933 -0.00055763209   0.46846734            0            0   0.46846734    1.1085881    1.5770555   -17.456787 
   70000   0.76993881 -0.00049465446   0.42030963            0            0   0.42030963     1.145284    1.5655936   -15.318612 
   75000   0.80343109 -0.00021772312   0.37800539            0            0   0.37800539    1.1951037    1.5731091   -5.8585065 
   80000   0.80879595 -0.00019067872    0.3693883            0            0    0.3693883     1.203084    1.5724723    -4.936028 
   85000   0.80822765 -0.00035652815   0.37665718            0            0   0.37665718    1.2022386    1.5788958   -10.590599 
   90000   0.83178479 -0.00014680623   0.34121848            0            0   0.34121848    1.2372799    1.5784984   -3.4324875 
   95000   0.87348041 0.00014812771   0.27844857            0            0   0.27844857    1.2993021    1.5777507    6.6338431 
  100000   0.83752967 -4.9971137e-05   0.34324232            0            0   0.34324232    1.2458254    1.5890677  -0.11661378 
  105000   0.83547704 -0.00027645126   0.36602767            0            0   0.36602767    1.2427721    1.6087998   -7.8274032 
  110000   0.85013045 -0.00015818386   0.33623869            0            0   0.33623869     1.264569    1.6008077   -3.7985347 
  115000   0.87506473 0.0001065694   0.30525569            0            0   0.30525569    1.3016588    1.6069145    5.2444834 
  120000   0.88147655 -5.2963942e-05   0.28777345            0            0   0.28777345    1.3111964    1.5989698  -0.20886608 
  125000   0.81527133 -0.00023877911   0.37188622            0            0   0.37188622    1.2127161    1.5846023   -6.5657245 
  130000   0.88189688 -6.1747604e-05   0.27517448            0            0   0.27517448    1.3118216    1.5869961  -0.52065547 
  135000   0.88606822 0.0001554127   0.28298013            0            0   0.28298013    1.3180265    1.6010066      6.90576 
  140000   0.87830427 4.9665562e-06   0.28743644            0            0   0.28743644    1.3064776     1.593914    1.7634392 
  145000   0.84593885 -0.00028672054    0.3219262            0            0    0.3219262     1.258334    1.5802602   -8.2064677 
  150000   0.85353182 -6.9310527e-06   0.31130959            0            0   0.31130959    1.2696286    1.5809382    1.3443582 
  155000   0.82178788 0.00017535454   0.34942373            0            0   0.34942373    1.2224095    1.5718332     7.557268 
  160000   0.80302095 -0.00015640327   0.38506998            0            0   0.38506998    1.1944937    1.5795636   -3.7590014 
  165000   0.80948202 -0.00022787975   0.37987399            0            0   0.37987399    1.2041045    1.5839785   -6.1943171 
  170000   0.87348198 0.00012905238   0.25944763            0            0   0.25944763    1.2993044    1.5587521    5.9637399 
  175000   0.83218702 3.4412344e-05   0.30332493            0            0   0.30332493    1.2378782    1.5412031    2.7158111 
  180000   0.84285058 -0.00020650209   0.29791624            0            0   0.29791624    1.2537402    1.5516565   -5.4969483 
  185000   0.86104991 6.3113944e-06    0.2908016            0            0    0.2908016    1.2808117    1.5716133    1.7870423 
  190000   0.83025832 0.00010447711    0.3284651            0            0    0.3284651    1.2350092    1.5634743    5.1296263 
  195000    0.8411634 -0.00010792533   0.33638709            0            0   0.33638709    1.2512306    1.5876176   -2.0962336 
  200000   0.84354858 -2.7463834e-05   0.35009226            0            0   0.35009226    1.2547785    1.6048708   0.66743855 
  205000   0.84370051 -3.5763206e-05   0.34593823            0            0   0.34593823    1.2550045    1.6009427    0.3802253 
  210000   0.80024922 1.2452059e-06     0.392803            0            0     0.392803    1.1903707    1.5831737    1.6256767 
  215000    0.8632724 5.0276723e-05   0.30998712            0            0   0.30998712    1.2841177    1.5941048     3.310217 
  220000   0.85643851 -4.4451643e-05   0.35211047            0            0   0.35211047    1.2739523    1.6260627      0.10878 
  225000   0.87213805 -0.00015922299   0.36434338            0            0   0.36434338    1.2973053    1.6616487   -3.7731628 
  230000   0.93951938 0.00015188813   0.28760039 0.0004649725            0   0.28713541    1.3975351    1.6851355    6.8695837 
  235000   0.90637403 -0.00010056526   0.35190228 0.0028116608            0   0.34909062    1.3482314    1.7001337   -1.7324939 
  240000    0.9031104 -1.7564517e-05   0.35202835 0.0022420808            0   0.34978627    1.3433767    1.6954051    1.0958696 
  245000     0.929484 -5.7530607e-06   0.32236578 0.00039270097            0   0.32197308    1.3826074    1.7049732    1.5086021 
  250000   0.88553454 1.1316647e-05   0.38726933            0            0   0.38726933    1.3172326     1.704502    2.0907768 
  255000    0.8691937 7.2686986e-05   0.40054503            0            0   0.40054503    1.2929256    1.6934707    4.1745198 
  260000   0.88380726 -0.00011892623   0.38960643            0            0   0.38960643    1.3146633    1.7042697   -2.3550788 
  265000   0.88324802 4.2317901e-05   0.36900251            0            0   0.36900251    1.3138314    1.6828339     3.127285 
  270000     0.898428 -2.0497792e-05   0.36202552            0            0   0.36202552    1.3364117    1.6984372   0.99877921 
  275000     0.929542 3.0573326e-05   0.30954897            0            0   0.30954897    1.3826937    1.6922427    2.7358122 
  280000   0.86086869 -0.00010582065   0.41422399            0            0   0.41422399    1.2805422    1.6947662   -1.9172455 
  285000   0.86172642 0.00012676759   0.40985534            0            0   0.40985534     1.281818    1.6916734    6.0186736 
  290000    0.9018217 -3.5715259e-06     0.346418            0            0     0.346418    1.3414598    1.6878778    1.5659697 
  295000   0.91436879 -0.00013707217   0.32892531            0            0   0.32892531    1.3601236    1.6890489   -2.9896812 
  300000    0.8698564 4.6063557e-05   0.40270643            0            0   0.40270643    1.2939114    1.6966178    3.2689206 
  305000   0.90856213 2.4311337e-05   0.34324206            0            0   0.34324206    1.3514862    1.6947282    2.5245552 
  310000   0.93748071 -0.00017677928   0.32788535 0.00050391128            0   0.32738144    1.3945026    1.7223879   -4.3116781 
  315000   0.93702185 8.1992014e-05   0.33753969 0.0036682468            0   0.33387144      1.39382    1.7313597    4.5300204 
  320000   0.89362117 6.5236785e-05   0.40293373 0.0042469589            0   0.39868677    1.3292615    1.7321952    3.9589442 
  325000   0.89515252 -0.00026840717   0.39880305  0.002133407            0   0.39666964    1.3315394    1.7303424   -7.4312891 
  330000   0.90056336 0.00021926934   0.38316527 0.00042737683            0    0.3827379     1.339588    1.7227533    9.2071467 
  335000   0.92928316 -0.00011250112   0.34437084            0            0   0.34437084    1.3823087    1.7266795   -2.1133587 
  340000   0.91378905 -0.00011849324   0.36735025            0            0   0.36735025    1.3592612    1.7266115   -2.3179578 
  345000   0.89826945 0.00015554465   0.36430888            0            0   0.36430888    1.3361758    1.7004847    7.0097422 
  350000   0.89552348 -0.00014274096   0.36200071            0            0   0.36200071    1.3320912    1.6940919   -3.1781329 
  355000   0.88244027 0.00010849248   0.38018664            0            0   0.38018664    1.3126299    1.6928165    5.3960267 
  360000    0.9033008 7.5331589e-05   0.36440941            0            0   0.36440941    1.3436599    1.7080693    4.2793876 
  365000   0.83842302 -0.00022242727   0.45001676            0            0   0.45001676    1.2471542     1.697171   -5.8950132 
  370000   0.89814165 0.0001438387   0.36654779            0            0   0.36654779    1.3359857    1.7025335     6.612228 
  375000   0.86604987 -0.00010651632   0.41939243            0            0   0.41939243    1.2882492    1.7076416   -1.9281154 
  380000    0.9075586 3.9241477e-05   0.37381184            0            0   0.37381184    1.3499934    1.7238053    3.0632477 
  385000   0.88220568 8.5137697e-05   0.43790434            0            0   0.43790434    1.3122809    1.7501853    4.6562187 
  390000   0.91179576 -3.1082405e-05   0.40181816            0            0   0.40181816    1.3562962    1.7581144   0.69716826 
  395000   0.95517702 1.4000496e-05   0.36088844            0            0   0.36088844    1.4208258    1.7817143    2.2595978 
  400000   0.88055345 4.3488584e-05   0.47563723            0            0   0.47563723    1.3098233    1.7854605    3.2698708 
  405000   0.91580398 -5.5691342e-05   0.43362295            0            0   0.43362295    1.3622584    1.7958814  -0.10504977 
  410000   0.95032598 7.4155981e-05    0.3744767            0            0    0.3744767    1.4136099    1.7880866    4.3192774 
  415000   0.96498464 -6.4290388e-05   0.36488625            0            0   0.36488625    1.4354147    1.8003009  -0.39414434 
  420000   0.95687458 -3.7350922e-06   0.38387519            0            0   0.38387519    1.4233509    1.8072261     1.679735 
  425000   0.97060791 1.3167209e-05   0.37138732            0            0   0.37138732    1.4437793    1.8151666    2.2646073 
  430000     0.960614 -2.3903783e-05   0.42304663            0            0   0.42304663    1.4289133      1.85196    1.0360442 
  435000   0.95792009 -1.0003019e-05    0.4304555            0            0    0.4304555    1.4249061    1.8553616    1.5139253 
  440000   0.98780303 2.223922e-05   0.37223326            0            0   0.37223326     1.469357    1.8415903     2.600689 
  445000   0.92163995 3.5795967e-05    0.4687649            0            0    0.4687649    1.3709394    1.8397043      3.06154 
  450000   0.91966926 6.0646836e-05   0.48431051            0            0   0.48431051     1.368008    1.8523185    3.9223972 
  455000   0.94096436 5.2730034e-05   0.45566801            0            0   0.45566801    1.3996845    1.8553525    3.6552043 
  460000   0.94322339 -2.6443147e-07   0.44951895            0            0   0.44951895    1.4030448    1.8525637    1.8435378 
  465000   0.93808655 -0.00014089742   0.44836615            0            0   0.44836615    1.3954037    1.8437699   -2.9655289 
  470000   0.96024342 0.00014400133   0.40108713            0            0   0.40108713    1.4283621    1.8294492    6.7446948 
  475000   0.93974826 -2.7107065e-05   0.42956867            0            0   0.42956867    1.3978755    1.8274442    0.9021897 
  480000   0.90388959 9.1646187e-06   0.47105688            0            0   0.47105688    1.3445358    1.8155927    2.1284116 
  485000   0.91720213 -0.00010063975   0.42986347            0            0   0.42986347    1.3643382    1.7942016   -1.6409684 
  490000   0.92990618 2.0600513e-05   0.41603777            0            0   0.41603777    1.3832354    1.7992732    2.5024374 
  495000   0.92068165 -1.4053709e-05   0.42410434            0            0   0.42410434    1.3695139    1.7936183    1.3139184 
  500000   0.93743269 -6.0502974e-05   0.42324678            0            0   0.42324678    1.3944311    1.8176779  -0.24749027 
  505000   0.98202397 5.8152947e-05   0.36633648            0            0   0.36633648    1.4607607    1.8270971    3.8120511 
  510000   0.97231142 -0.00012515416   0.37085621            0            0   0.37085621    1.4463132    1.8171694   -2.4547593 
  515000   0.96455127 2.6899436e-06   0.37590813            0            0   0.37590813      1.43477    1.8106781    1.9024949 
  520000   0.92285399 4.2094718e-05   0.41331118            0            0   0.41331118    1.3727453    1.7860565    3.2228895 
  525000   0.96903665 -5.3320964e-05   0.38509904            0            0   0.38509904     1.441442    1.8265411 0.0065188325 
  530000   0.93800548 0.00014857826   0.44390193            0            0   0.44390193    1.3952832    1.8391851    6.9106562 
  535000    0.9581102 -0.00011734261   0.40984143            0            0   0.40984143    1.4251889    1.8350304   -2.1702642 
  540000   0.91575214 0.00018277758   0.48748595            0            0   0.48748595    1.3621813    1.8496673    8.0884753 
  545000   0.93202391 -0.00030465463   0.47108001 4.5371988e-07            0   0.47107956    1.3863856    1.8574656   -8.5414125 
  550000   0.93404498 0.00017567129   0.48043062 0.00067313839            0   0.47975748    1.3893919    1.8698225    7.8660692 
  555000   0.95069955 -0.00010156637   0.44775861 0.0013156431            0   0.44644297    1.4141656    1.8619242   -1.6048746 
  560000   0.94898941 0.00021724847   0.46750864 0.00075413521            0   0.46675451    1.4116217    1.8791304    9.2945449 
  565000   0.96990528 -0.0001022148   0.45459856 0.00061175908            0    0.4539868    1.4427341    1.8973327    -1.591599 
  570000    1.0375084 0.00013539415   0.35968452 1.3888194e-05            0   0.35967063    1.5432938    1.9029783    6.5244319 
  575000    1.0022592 -0.000139542   0.44179641  0.001324532            0   0.44047188    1.4908606     1.932657   -2.8303768 
  580000    1.0755859 0.00011813398   0.33712288   0.00291305            0   0.33420983     1.599934    1.9370569    5.9693635 
  585000    0.9957133 -0.00010651054   0.41875244 0.0059493309            0   0.41280311    1.4811235     1.899876   -1.7356837 
  590000    1.0398529 7.4338622e-05    0.3898075 0.00034753835            0   0.38945996    1.5467812    1.9365887    4.4740136 
  595000    1.0086429 -4.0591057e-06   0.43534474 4.905572e-06            0   0.43533983    1.5003563    1.9357011    1.7971503 
  600000   0.98964267 0.00011154504   0.46777681 0.00016505614            0   0.46761176    1.4720935    1.9398703    5.7472745 
  605000    1.0668009 -1.5771518e-05   0.34229045 0.00021313766            0   0.34207731    1.5868664    1.9291568    1.3908223 
  610000    1.1007545 -3.2042255e-05   0.30264867 4.1265208e-05            0   0.30260741    1.6373724    1.9400211   0.84631208 
  615000    1.0408052 3.8517367e-05   0.38113504 0.00087077751            0   0.38026427    1.5481977    1.9293328    3.2440589 
  620000   0.95172511 -0.0001382511   0.50380892 0.0015336394            0   0.50227528    1.4156911       1.9195    -2.799471 
  625000   0.95694015 2.0922561e-05   0.49810933 0.00098346109            0   0.49712587    1.4234485    1.9215578    2.6357146 
  630000   0.96319966 -2.7801722e-05   0.47404037 0.00041162387            0   0.47362875    1.4327595    1.9067999   0.95783441 
  635000   0.97482247 8.6106217e-05   0.44125666 9.8725048e-05            0   0.44115793    1.4500484    1.8913051    4.8303973 
  640000   0.94673963 -9.2427518e-05   0.47301155 1.5464303e-06            0      0.47301    1.4082752    1.8812868   -1.2735725 
  645000   0.94840445 3.7498745e-05   0.46252365            0            0   0.46252365    1.4107516    1.8732753    3.1532324 
  650000   0.99018145 -0.00016755642   0.40865886            0            0   0.40865886    1.4728949    1.8815538   -3.8377055 
  655000   0.99215794 0.00019494223   0.38232472            0            0   0.38232472    1.4758349    1.8581596    8.5121879 
  660000   0.99224358 -4.1081671e-05   0.38003857            0            0   0.38003857    1.4759623    1.8560009    0.4537465 
  665000   0.99997686 2.6046429e-05   0.36939958            0            0   0.36939958    1.4874656    1.8568652    2.7459166 
  670000   0.95414324 5.432332e-05   0.43210112 2.7831602e-05            0   0.43207328    1.4192881    1.8513892    3.7056252 
  675000   0.89098527 -0.00020474934   0.55277164 0.00096753169            0   0.55180411    1.3253406    1.8781122   -5.1106651 
  680000   0.91418626 8.4697886e-05   0.51522821 0.0022259756            0   0.51300224    1.3598521    1.8750803    4.7661015 
  685000   0.98303849 0.00012936669   0.39510265 0.0023711784            0   0.39273147    1.4622698    1.8573724    6.2730886 
  690000   0.95977118 -9.2964325e-05   0.41916573 0.00027167686            0   0.41889405    1.4276596    1.8468254   -1.3263569 
  695000   0.91023908 8.9098086e-05   0.49410371            0            0   0.49410371    1.3539806    1.8480843     4.889299 
  700000   0.90043585 -0.00022853137   0.51197779 0.00010904389            0   0.51186875    1.3393983    1.8513761   -5.9491612 
  705000   0.96280285 0.00034917823   0.41501191 0.0018539341            0   0.41315797    1.4321692    1.8471811    13.765798 
  710000   0.92815669 -0.00028735548   0.45577329 0.0029516706            0   0.45282162    1.3806331    1.8364064    -7.971994 
  715000   0.96683462 9.0724863e-05   0.40779027 0.0011538885            0   0.40663638    1.4381665    1.8459568    4.9426988 
  720000   0.93668237 -0.00010092074   0.45281691 3.4096584e-06            0    0.4528135     1.393315    1.8461319   -1.5986295 
  725000   0.92064396 -0.00010817422   0.47388783            0            0   0.47388783    1.3694579    1.8433457   -1.8490011 
  730000   0.94588157 -2.3495266e-05   0.45589422 2.9970005e-05            0   0.45586425    1.4069988     1.862893    1.0609213 
  735000   0.98064866 -7.9977799e-05   0.40537353 0.0019295789            0   0.40344395    1.4587149    1.8640884  -0.86582045 
  740000   0.96440653 -5.0535007e-05   0.43569329 0.0062826332            0   0.42941066    1.4345547     1.870248   0.14531976 
  745000   0.96629028 7.4955893e-05   0.44814076  0.005099479            0   0.44304128    1.4373568    1.8854976     4.443992 
  750000   0.99252678 9.479862e-05   0.44095837 0.0013314641            0    0.4396269    1.4763836     1.917342    5.1531348 
  755000    0.9752826 5.0120697e-05   0.48201469 0.0049671232            0   0.47704757    1.4507329    1.9327476     3.643534 
  760000    1.0061751 1.3987371e-05   0.43182253 0.0053569309            0    0.4264656    1.4966854    1.9285079    2.4059435 
  765000    1.0095606 1.1147347e-05   0.40053794 0.0035235269            0   0.39701441    1.5017213    1.9022593    2.2827554 
  770000   0.93630179 -0.00013286407   0.45449836 0.0041627276            0   0.45033564    1.3927489    1.8472473   -2.6878463 
  775000   0.92216576 0.00026199492   0.46252448  0.014120519            0   0.44840396    1.3717216    1.8342461    10.777006 
  780000   0.92840138 -0.00025582328    0.4745651 0.0039183998            0    0.4706467    1.3809971    1.8555622   -6.8765393 
  785000   0.94845328 0.0001274654   0.46145433 0.00079165622            0   0.46066268    1.4108242    1.8722786    6.2230974 
  790000   0.94698462 -8.5173534e-05   0.45867164 0.00023468807            0   0.45843695    1.4086396    1.8673113   -1.0399454 
  795000   0.95152517 -3.4695801e-05   0.45962793 0.00098195176            0   0.45864598    1.4153937    1.8750216   0.69073829 
  800000   0.92205611 -5.2681211e-05   0.50615327  0.019371109            0   0.48678217    1.3715585    1.8777117  0.079526423 
  805000   0.95200614 6.4911279e-05   0.46617787  0.006586249            0   0.45959162    1.4161091     1.882287    4.0979253 
  810000   0.96074709 -0.00011059331   0.43519337 0.0049232715            0    0.4302701    1.4291113    1.8643047   -1.9106138 
  815000   0.95187138 0.00016623711   0.44791586  0.001145335            0   0.44677053    1.4159087    1.8638245    7.5380514 
  820000    0.9592712 0.00013988731   0.43178992 0.0013464261            0    0.4304435    1.4269159    1.8587058    6.6335258 
  825000   0.93758518 -5.9765573e-06   0.46556031  0.010341146            0   0.45521916     1.394658    1.8602183    1.6562184 
  830000   0.92712175 6.0448087e-05   0.48371407 0.0063130349            0   0.47740104    1.3790936    1.8628077    3.9261024 
  835000   0.89435946 -0.00011834413   0.47993327 0.00082051794            0   0.47911275    1.3303597     1.810293   -2.2291867 
  840000   0.91638832 0.00011178451   0.43168337            0            0   0.43168337    1.3631276     1.794811    5.6103889 
  845000   0.95657267 1.8995783e-05   0.36510555 1.1566488e-05            0   0.36509398    1.4229018    1.7880074    2.4363968 
  850000   0.89804203 -2.1198965e-05    0.4510234 0.0019114193            0   0.44911198    1.3358375    1.7868609    1.0632696 
  855000   0.90655059 3.6195316e-05   0.42897728 0.0047265826            0   0.42425069     1.348494    1.7774713    3.0129381 
  860000   0.95841799 -5.3623014e-05   0.36169587 0.0080644824            0   0.35363139    1.4256468    1.7873426 -0.042989581 
  865000   0.97022053 0.00011808599   0.37405897 0.0017461389            0   0.37231284     1.443203     1.817262    5.8479304 
  870000   0.96440761 -5.1801599e-05   0.39608651 0.00050033318            0   0.39558618    1.4345563    1.8306428   0.06248159 
  875000   0.91534366 -3.7475407e-05    0.4583463 0.0019005366            0   0.45644576    1.3615737      1.81992   0.54075944 
  880000   0.93239389 -7.1128725e-05   0.42537667 0.0025313924            0   0.42284528    1.3869359    1.8123126   -0.6155479 
  885000    0.9088652 -6.5506351e-05   0.45865138 0.00075157375            0   0.45789981     1.351937    1.8105884  -0.42536173 
  890000   0.92488269 -2.0825587e-05   0.45011831            0            0   0.45011831     1.375763    1.8258813    1.1150346 
  895000   0.98827944 8.5580787e-05   0.34943686 0.0001166931            0   0.34932017    1.4700657    1.8195025    4.7406601 
  900000   0.93303218 6.2782797e-05    0.4327621 0.00048808956            0   0.43227401    1.3878854    1.8206475    3.9636336 
  905000   0.85024893 -1.0282367e-05   0.55078384 0.00058433789            0    0.5501995    1.2647453    1.8155291    1.4645577 
  910000   0.88686322 -5.366147e-05   0.48017751 0.0014342717            0   0.47874323     1.319209    1.7993865 -0.032258283 
  915000   0.90668993 -6.782626e-05   0.43676764 0.0029423715            0   0.43382527    1.3487013    1.7854689  -0.52966744 
  920000   0.87147287 2.2952019e-05   0.47291491 0.0023487599            0   0.47056615    1.2963159    1.7692308    2.5526597 
  925000   0.91722244 -6.5742475e-06   0.42535545  0.002075473            0   0.42327998    1.3643684    1.7897238    1.5653228 
  930000   0.90705864 6.9696315e-05   0.44056216  0.015479045            0   0.42508311    1.3492497    1.7898119    4.1687794 
  935000   0.89089605 -4.0298378e-05   0.44398513 0.0040744681            0   0.43991067    1.3252079     1.769193   0.39367504 
  940000    0.8701563 -1.355476e-05   0.46668632            0            0   0.46668632    1.2943575    1.7610438    1.2983747 
  945000   0.88343332 -5.8027717e-05   0.44097946            0            0   0.44097946    1.3141071    1.7550865  -0.22559286 
  950000   0.89584634 7.0845865e-05   0.41792875            0            0   0.41792875    1.3325714    1.7505002    4.1687057 
  955000   0.83915861 -0.00010848453   0.49294006            0            0   0.49294006    1.2482484    1.7411885   -1.9617503 
  960000   0.84419156 -3.4810823e-05   0.46611338            0            0   0.46611338    1.2557349    1.7218483   0.53363889 
  965000   0.88759105 -0.00018878462   0.41874673            0            0   0.41874673    1.3202917    1.7390384     -4.70481 
  970000   0.86270005 0.00010240426   0.45087178            0            0   0.45087178    1.2832663    1.7341381    5.2295369 
  975000   0.89878794 -5.4833945e-05   0.38926231            0            0   0.38926231    1.3369471    1.7262094  -0.14545595 
  980000   0.86104546 -3.1694282e-05   0.44045156 0.0054906775            0   0.43496089    1.2808051    1.7212567   0.63942518 
  985000   0.86168239 -2.7154185e-05   0.43988685  0.014136495            0   0.42575036    1.2817526    1.7216394   0.79477655 
  990000   0.95319174 -8.4720326e-05   0.33101111 0.00049992692            0   0.33051118    1.4178727    1.7488838   -1.1429033 
  995000   0.91391122 2.5867959e-06   0.37232016 5.3369772e-07            0   0.37231962    1.3594429    1.7317631    1.8200591 
 1000000   0.87643679 0.00010307664   0.43180908 0.0011577246            0   0.43065136    1.3036997    1.7355088     5.253858 
 1005000   0.81280073 3.9246129e-05   0.53746925 0.0041227538            0    0.5333465    1.2090411    1.7465103    3.0861115 
 1010000   0.86478175 3.1441632e-05   0.45852538  0.002598776            0    0.4559266    1.2863629    1.7448882    2.8180959 
 1015000   0.94075867 -3.357536e-05    0.3491875 0.0005542971            0    0.3486332    1.3993785     1.748566   0.60252706 
 1020000   0.88247729 -3.5613305e-05   0.44234561 1.9201374e-05            0   0.44232641     1.312685    1.7550306   0.53942977 
 1025000   0.87714788 -1.5069353e-05   0.44045224 0.0003292804            0   0.44012296    1.3047575    1.7452097    1.2308425 
 1030000   0.87647883 9.121955e-05   0.43603784  0.010739698            0   0.42529814    1.3037623    1.7398001    4.8534274 
 1035000   0.92735703 1.1192591e-05   0.37546936  0.017203144            0   0.35826622    1.3794436    1.7549129    2.1369534 
 1040000   0.86970913 -0.00015791412   0.46336514  0.008187673            0   0.45517746    1.2936923    1.7570575   -3.6330778 
 1045000   0.87076141 1.9719659e-06   0.45750798 0.0066402375            0   0.45086775    1.2952576    1.7527656    1.8200754 
 1050000   0.88323276 -6.5629768e-06   0.45084268 0.0025715879            0   0.44827109    1.3138087    1.7646514    1.5406351 
 1055000   0.91313978 6.3177326e-05   0.39867564  0.001602451            0   0.39707319    1.3582954    1.7569711    3.9134238 
 1060000   0.91582763 -4.8447319e-06   0.39700269 0.0067786694            0   0.39022402    1.3622936    1.7592963    1.5939294 
 1065000   0.82476605 8.6483813e-05   0.52642353 0.0070978535            0   0.51932567    1.2268395     1.753263    4.7052438 
 1070000   0.84397802 -5.8038409e-05   0.50328185 0.0080076203            0   0.49527423    1.2554173    1.7586992  -0.22234521 
 1075000   0.87211594 -2.4129679e-05   0.46468231 0.0093629004            0   0.45531941    1.2972725    1.7619548   0.93832837 
 1080000   0.88343908 -1.2477036e-05   0.46207411  0.010731771            0   0.45134234    1.3141156    1.7761897    1.3503069 
 1085000   0.83598888 -5.9050833e-05   0.51620854 0.0061310569            0   0.51007749    1.2435335     1.759742  -0.25585977 
 1090000   0.83299921 -3.9596101e-05   0.51157611  0.010676743            0   0.50089937    1.2390863    1.7506624   0.39911554 
 1095000   0.86914743 0.00011408544   0.45031696  0.014005515            0   0.43631145    1.2928568    1.7431738    5.6372902 
 1100000    0.8453521 -0.00016377823   0.51098161 0.0089360325            0   0.50204558    1.2574612    1.7684429    -3.821854 
 1105000   0.88616444 -9.7956116e-05    0.4342386 0.0050053963            0   0.42923321    1.3181696    1.7524082   -1.5911605 
 1110000   0.85633768 -0.0001314262   0.46886843 0.0021625742            0   0.46670586    1.2738023    1.7426707   -2.7433435 
 1115000   0.81783591 6.8929441e-05   0.50746922 0.0026064249            0   0.50486279    1.2165309    1.7240001    4.0767917 
 1120000   0.79871889 -0.00016257236   0.55522913  0.017504886            0   0.53772425    1.1880944    1.7433235   -3.8058131 
 1125000    0.8652028 6.8108558e-05   0.47418976  0.011818105            0   0.46237166    1.2869892    1.7611789     4.085951 
 1130000   0.89037044 4.7023472e-05   0.43030826 0.0049138965            0   0.42539436     1.324426    1.7547343    3.3598021 
 1135000   0.86326698 -7.3600092e-05   0.45828345 0.0044432359            0   0.45384022    1.2841096    1.7423931   -0.7698234 
 1140000   0.90108629 0.00010154398   0.42072136 0.0051148854            0   0.41560648    1.3403659    1.7610872    5.2271216 
 1145000   0.86682838 9.0184782e-06   0.44760503 0.0025554534            0   0.44504958    1.2894072    1.7370122     2.044843 
 1150000   0.87926096 8.854117e-05   0.43555418 0.0047772788            0    0.4307769    1.3079007    1.7434549    4.7656601 
 1155000   0.78328788 -7.0107024e-05   0.58328557 0.0054247919            0   0.57786078    1.1651407    1.7484263  -0.64456013 
 1160000   0.80426235 0.00015874333   0.55972267 0.0016147324            0   0.55810794    1.1963403    1.7560629    7.1745018 
 1165000   0.84249062 -0.00016669618    0.5037031 0.00030165251            0   0.50340145    1.2532048    1.7569079   -3.9329884 
 1170000   0.90673711 -5.0784545e-05   0.40723222            0            0   0.40723222    1.3487715    1.7560037  0.022557858 
 1175000   0.87495785 4.7131473e-05   0.48194125 6.2895255e-05            0   0.48187836    1.3014998    1.7834411    3.3921953 
 1180000   0.90456039 -3.2207367e-05   0.44085478 0.0033755086            0   0.43747927    1.3455336    1.7863884   0.68704357 
 1185000   0.87470504 -9.757279e-06   0.48097096  0.015944618            0   0.46502635    1.3011237    1.7820947    1.4490463 
 1190000   0.91198422 -0.00010897659    0.4396862 0.0098622454            0   0.42982395    1.3565765    1.7962627   -1.9234716 
 1195000   0.88457962 5.113133e-05   0.47634723 0.0014657989            0   0.47488143    1.3158122    1.7921594    3.5374421 
 1200000    0.8979675 -2.096445e-05   0.44436189 0.0017162956            0   0.44264559    1.3357267    1.7800885     1.064502 
 1205000   0.89049244 -2.5165928e-05     0.434517 0.0021770679            0   0.43233993    1.3246075    1.7591245   0.90012749 
 1210000   0.91831471 6.4610473e-05   0.40169217 0.00084503977            0   0.40084713    1.3659931    1.7676853    3.9730561 
 1215000   0.85606804 8.416856e-05   0.50367847 0.0014134663            0     0.502265    1.2734012    1.7770797    4.6500332 
 1220000   0.92930727 7.4062105e-05   0.38362811  0.015279553            0   0.36834855    1.3823446    1.7659727    4.2939592 
 1225000   0.87312494 6.2596474e-05   0.47715251  0.022361434            0   0.45479107    1.2987733    1.7759258    3.9125522 
 1230000   0.86799226 5.4854624e-05   0.49191311 0.0066719096            0    0.4852412    1.2911385    1.7830516    3.6554228 
 1235000   0.88706238 2.6160995e-05   0.43311649 0.0029574003            0   0.43015909    1.3195053    1.7526218    2.6455838 
 1240000   0.87307798 6.6787077e-05   0.41792184  0.012876048            0   0.40504579    1.2987035    1.7166253    3.9962909 
 1245000   0.81879289 -8.8055507e-05   0.49473121  0.012150911            0    0.4825803    1.2179544    1.7126856   -1.2929423 
 1250000   0.87492184 -4.1765932e-06   0.40642547 0.0078404517            0   0.39858502    1.3014462    1.7078717    1.5653107 
 1255000   0.85591613 -3.1484068e-05   0.45636109  0.019618127            0   0.43674296    1.2731752    1.7295363   0.65488015 
 1260000   0.88495427 0.00014229634   0.42288905  0.010073591            0   0.41281545    1.3163695    1.7392585     6.596307 
 1265000   0.90642196 -6.082734e-05   0.39610541 0.0077162318            0   0.38838917    1.3483027    1.7444081  -0.33183181 
 1270000   0.87465481 1.5970693e-05   0.44786102  0.014203613            0   0.43365741     1.301049    1.7489101    2.2940431 
 1275000   0.91126939 8.771669e-05   0.39274206 0.0090696996            0   0.38367236    1.3555132    1.7482553    4.7423183 
 1280000   0.89746448 -3.8275443e-05   0.42642632 0.0051556211            0    0.4212707    1.3349784    1.7614047   0.45493629 
 1285000   0.87809818 1.1862504e-05   0.45451534 0.0020275465            0    0.4524878     1.306171    1.7606864    2.1655932 
 1290000   0.92519066 9.1663718e-05   0.39100582 0.0028683824            0   0.38813744    1.3762211    1.7672269    4.8960152 
 1295000   0.87793516 -5.7746463e-05   0.47297394 0.0090510041            0   0.46392293    1.3059285    1.7789025   -0.1921768 
 1300000   0.86370236 -5.258102e-05   0.48809152  0.018353495            0   0.46973802    1.2847573    1.7728488 -0.021916695 
 1305000   0.88491216 3.3836824e-05   0.46373641  0.014171759            0   0.44956465    1.3163068    1.7800433    2.9350068 
 1310000   0.85179459 -3.2228809e-05    0.5118475  0.015065998            0    0.4967815    1.2670445     1.778892   0.67881527 
 1315000   0.89432583 0.00010828316   0.46032729  0.023329587            0    0.4369977    1.3303097     1.790637    5.4867021 
 1320000   0.88408917 -7.9968883e-05   0.45475242  0.014250782            0   0.44050164    1.3150826    1.7698351  -0.95976948 
 1325000   0.86391003 -0.00015738597   0.49656468  0.015806946            0   0.48075774    1.2850662    1.7816308   -3.5904771 
 1330000   0.89370819 -1.3898799e-05   0.44874419  0.016062028            0   0.43268217    1.3293909    1.7781351    1.3037228 
 1335000   0.87353083 0.00012712985   0.47991111  0.006983052            0   0.47292806    1.2993771    1.7792882    6.1186536 
 1340000   0.88129067 -6.9460242e-05   0.45301721  0.012045681            0   0.44097153    1.3109199    1.7639371  -0.60697252 
 1345000   0.88373431 -1.1863682e-05   0.43805458 0.0020637826            0    0.4359908    1.3145548    1.7526094    1.3476624 
 1350000   0.91814554 8.0673555e-05   0.36934607            0            0   0.36934607    1.3657415    1.7350876    4.4887449 
 1355000   0.82183583 8.916565e-05   0.52325637            0            0   0.52325637    1.2224808    1.7457372     4.789258 
 1360000   0.86587565 3.4705199e-05   0.47081063 0.0095340575            0   0.46127657      1.28799    1.7588007    2.9434048 
 1365000   0.87423596 1.4918509e-05   0.47312822  0.016054795            0   0.45707342     1.300426    1.7735542    2.2827727 
 1370000   0.93758572 -5.4782177e-05   0.36891573 0.00086999789            0   0.36804573    1.3946588    1.7635745   -0.1063238 
 1375000   0.90713648 -6.9845279e-06    0.4119343 0.0051700293            0   0.40676427    1.3493655    1.7612998    1.5228946 
 1380000   0.86306457 -3.6959155e-05    0.4971637  0.012235655            0   0.48492805    1.2838085    1.7809723   0.51943311 
 1385000   0.93045886 6.6740368e-05   0.40496301 0.0054298387            0   0.39953317    1.3840576    1.7890206    4.0670918 
 1390000   0.93693544 -1.585067e-06   0.40781622 0.0012704395            0   0.40654578    1.3936915    1.8015077    1.7474041 
 1395000   0.90937553 3.2602861e-05   0.44965065 0.00094158929            0   0.44870906    1.3526961    1.8023468    2.9151911 
 1400000   0.95832362 7.9091227e-06   0.40782474 0.0023751079            0   0.40544964    1.4255064    1.8333311    2.1032959 
 1405000   0.97205229 -2.8788694e-05   0.38648384 0.0082666909            0   0.37821715    1.4459278    1.8324116   0.84975752 
 1410000   0.94943455 -0.00010191857    0.4206417 0.0092931087            0   0.41134859    1.4122839    1.8329256    -1.645895 
 1415000   0.89689269 -0.00012476763   0.48522259 0.0076938728            0   0.47752872    1.3341279    1.8193505   -2.4393846 
 1420000   0.94008342 -8.3592218e-05   0.44457699 0.0064107666            0   0.43816622    1.3983741    1.8429511     -1.01033 
 1425000   0.93381462 0.00017823543   0.44683017  0.002616928            0   0.44421324    1.3890492    1.8358794    7.9196486 
 1430000   0.96484725 -3.1976159e-05   0.40358035 6.5047195e-05            0    0.4035153    1.4352103    1.8387906   0.74733776 
 1435000   0.90623902 1.4226928e-05   0.47472973 0.0029845754            0   0.47174516    1.3480305    1.8227603    2.3083727 
 1440000   0.92117953 -1.741776e-05   0.45770401 0.0077900352            0   0.44991398    1.3702545    1.8279586    1.2334324 
 1445000   0.91065842 -0.00013759324   0.48564424 0.0043538636            0   0.48129038    1.3546044    1.8402486   -2.8562673 
 1450000   0.94441462 7.1392426e-05   0.40834556 0.0024913117            0   0.40585424    1.4048167    1.8131623    4.2500238 
 1455000   0.98045632 2.7337859e-05   0.39647419 0.0016834646            0   0.39479072    1.4584288     1.854903    2.7880352 
 1460000   0.92985904 -0.00012204029   0.47353985 0.0027075112            0   0.47083234    1.3831653    1.8567052   -2.3089368 
 1465000   0.94030987 8.7456863e-05   0.45742979 0.0044711335            0   0.45295865    1.3987109    1.8561407     4.841335 
 1470000    0.9315487 4.6901588e-05   0.45705419 0.0041935455            0   0.45286065    1.3856787    1.8427329    3.4436404 
 1475000    0.9396397 -0.00014284804   0.46361792  0.001827857            0   0.46179006    1.3977141     1.861332   -3.0145477 
 1480000   0.95343687 0.00014803782   0.44602173 0.0090535465            0   0.43696818    1.4182373    1.8642591    6.9172835 
 1485000    1.0245539 -7.2078285e-06   0.36118025 0.0029089443            0    0.3582713    1.5240239    1.8852041    1.6391769 
 1490000   0.95954488 -0.00019085894    0.4489092 0.0019878306            0   0.44692137     1.427323    1.8762322   -4.6384195 
 1495000   0.94595153 -2.3962966e-05   0.48160285 0.0061462488            0    0.4754566    1.4071029    1.8887057    1.0707698 
 1500000   0.90354708 -0.00010781006   0.53364846 0.0045692269            0   0.52907923    1.3440263    1.8776747   -1.8022421 
 1505000   0.95277777 9.6710974e-05   0.46775325   0.00792136            0   0.45983189    1.4172569    1.8850102    5.1860781 
 1510000   0.95448601 0.00014581392   0.44531338  0.019059976            0   0.42625341    1.4197979    1.8651113    6.8422265 
 1515000    0.9344144 -0.00016491187   0.49884429  0.033513542            0   0.46533074    1.3899414    1.8887857   -3.7402062 
 1520000   0.94213346 -8.5539115e-05   0.47480882  0.010025524            0    0.4647833    1.4014235    1.8762324   -1.0435028 
 1525000   0.91341851 -4.6588772e-05   0.49486834 0.0011347553            0   0.49373358      1.35871    1.8535784   0.26334829 
 1530000   0.94227487 5.1555905e-05   0.44912411 0.00043748414            0   0.44868663    1.4016339     1.850758    3.6105329 
 1535000   0.97589602 -6.5511953e-06   0.40196721 0.0043609696            0   0.39760624    1.4516453    1.8536125    1.6299984 
 1540000   0.96259396 0.00012957855   0.41527648  0.021254293            0   0.39402219    1.4318585     1.847135     6.270083 
 1545000   0.95263151 -0.00011630928   0.45631482  0.017924466            0   0.43839036    1.4170394    1.8733542   -2.0966693 
 1550000   0.96083874 -1.4952157e-05   0.45436595   0.01334145            0    0.4410245    1.4292476    1.8836136    1.3732466 
 1555000   0.95618998 -3.1793284e-05   0.46145715 0.0072652145            0   0.45419193    1.4223326    1.8837897   0.79857899 
 1560000   0.98045204 -0.0001489223    0.4277384  0.020061346            0   0.40767705    1.4584224    1.8861608   -3.1970537 
 1565000   0.93389741 -9.5712554e-05   0.48577073   0.02011918            0   0.46565155    1.3891724    1.8749431   -1.3920454 
 1570000    0.9546713 6.8982473e-05   0.43830613 0.0081596691            0   0.43014646    1.4200736    1.8583797    4.2129814 
 1575000   0.93284318 7.2823821e-05    0.4538338 0.0021754815            0   0.45165832    1.3876042     1.841438    4.3271578 
 1580000   0.95236374 -1.7905772e-05   0.46222762 0.0029799744            0   0.45924764    1.4166411    1.8788687     1.267685 
 1585000   0.95788259 0.0002484408   0.44586532 0.0066156622            0   0.43924966    1.4248503    1.8707157    10.350828 
 1590000   0.95960853 -9.2800767e-05    0.4271953 0.0057888727            0   0.42140643    1.4274177     1.854613   -1.3129865 
 1595000    0.9479258 2.8958981e-05   0.45561691 0.0042248637            0   0.45139205    1.4100396    1.8656565    2.8541231 
 1600000   0.99029163 -3.2850235e-05   0.39434172 0.0043521501            0   0.38998957    1.4730588    1.8674005    0.7461125 
 1605000   0.98303628 8.938287e-05   0.41007016 0.0043437851            0   0.40572637    1.4622665    1.8723366    4.9232719 
 1610000   0.95513994 0.00011671156   0.42531683  0.020898356            0   0.40441847    1.4207707    1.8460875    5.8298421 
 1615000   0.93204075 -5.4446709e-05   0.46316408  0.036151816            0   0.42701227    1.3864106    1.8495747 -0.008872991 
 1620000    0.8898461 5.8464899e-05   0.51327677  0.020535081            0   0.49274169    1.3236461    1.8369228    3.8325247 
 1625000   0.95858981 -4.3780355e-05   0.38811577  0.012750667            0    0.3753651    1.4259023    1.8140181   0.31964865 
 1630000   0.90655315 -2.9881565e-05   0.47492274 0.0031026985            0   0.47182004    1.3484978    1.8234205   0.80346311 
 1635000   0.91195782 -0.00010739036   0.47579217 0.0088768486            0   0.46691533    1.3565373    1.8323294   -1.8332616 
 1640000   0.90986469 -5.6592892e-05   0.48943119  0.015758152            0   0.47367304    1.3534237    1.8428549 -0.088849121 
 1645000   0.91781822 1.416689e-05   0.48762261   0.01491248            0   0.47271013    1.3652546    1.8528772    2.3364404 
 1650000   0.92004134 0.00016978025   0.47102435 0.0042145594            0   0.46680979    1.3685615    1.8395858    7.6347516 
 1655000   0.95665929 8.127747e-05   0.40428374  0.013677161            0   0.39060658    1.4230307    1.8273144    4.6015854 
 1660000   0.86290141 0.00016236397   0.52414328  0.015211542            0   0.50893174    1.2835659    1.8077091    7.3497325 
 1665000   0.91116534 -2.2603292e-05   0.46229875 0.0059267673            0   0.45637198    1.3553584    1.8176572    1.0461315 
 1670000   0.91764156 -0.00015384512   0.43404607 0.0037017292            0   0.43034434    1.3649918    1.7990379    -3.452209 
 1675000   0.92357848 -8.8021459e-05   0.42931731 0.0048248208            0   0.42449249     1.373823    1.8031403   -1.2013255 
 1680000   0.89469689 -4.5918139e-05   0.43921199 0.0033904111            0   0.43582158    1.3308616    1.7700736   0.20273447 
 1685000   0.89347665 -4.354191e-06    0.4425078   0.01163543            0   0.43087237    1.3290465    1.7715543    1.6229313 
 1690000   0.87813204 -9.3357625e-05   0.47357738  0.015731587            0   0.45784579    1.3062214    1.7797988   -1.4068082 
 1695000   0.89291824 -1.6782183e-05    0.4847957 0.0049340437            0   0.47986166    1.3282159    1.8130116    1.2401797 
 1700000   0.92196771 -3.7539646e-05   0.43709178 0.0083040786            0    0.4287877     1.371427    1.8085187    0.5271655 
 1705000   0.89730091 8.1471389e-05   0.49197945  0.045807601            0   0.44617185    1.3347351    1.8267146    4.6076046 
 1710000   0.91681736 1.314435e-05   0.47055298  0.019259207            0   0.45129377    1.3637658    1.8343188    2.2829793 
 1715000   0.88742922 -0.00012103673   0.50964258 0.0014675301            0   0.50817505     1.320051    1.8296936   -2.3016936 
 1720000   0.91668179 -0.00018809569   0.47067033 0.0025028389            0   0.46816749    1.3635642    1.8342345   -4.5860984 
 1725000   0.93269571 -2.7241092e-05   0.44335927 0.0051584757            0    0.4382008    1.3873849    1.8307441   0.90091486 
 1730000   0.98690215 2.9100948e-05   0.38866915 0.0084245996            0   0.38024455     1.468017    1.8566861    2.8499985 
 1735000   0.93438992 4.5119909e-05   0.46428197  0.015883677            0   0.44839829     1.389905     1.854187    3.3942799 
 1740000   0.87617046 0.00018769681   0.53927365 0.0062201516            0    0.5330535    1.3033036    1.8425772    8.2492951 
 1745000   0.91925349 -0.00013748559   0.49321481 0.0012962896            0   0.49191852    1.3673896    1.8606044    -2.832237 
 1750000   0.92024636 -9.5407091e-05   0.48997832 0.0013527317            0   0.48862559    1.3688665    1.8588448   -1.3977173 
 1755000   0.94339599 -6.233175e-05   0.46373666 0.00056922045            0   0.46316744    1.4033015    1.8670382  -0.26055219 
 1760000   0.94926761 -4.2747607e-05   0.45943743 7.4108958e-05            0   0.45936332    1.4120356     1.871473   0.41235467 
 1765000   0.87890663 2.6566576e-05   0.54668225            0            0   0.54668225    1.3073736    1.8540559    2.7608617 
 1770000   0.92637776 0.00016694608   0.48692898 1.8130738e-05            0   0.48691085    1.3779869    1.8649159    7.5633421 
 1775000   0.90410012 -9.1036174e-05    0.5062819 0.0015663417            0   0.50471556    1.3448489    1.8511308   -1.2562373 
 1780000   0.93666898 -9.3083945e-05   0.46152215  0.019146934            0   0.44237521    1.3932951    1.8548172   -1.3224481 
 1785000   0.88100065 -2.6198689e-05   0.53780079  0.026198512            0   0.51160228    1.3104885    1.8482893   0.95404067 
 1790000   0.94526721 -0.00018941191   0.45992885  0.011116438            0   0.44881241     1.406085    1.8660138   -4.5992462 
 1795000   0.96602031 -6.5753535e-05   0.44069399 0.00073785398            0   0.43995613    1.4369552    1.8776492  -0.36673811 
 1800000   0.97881721 1.5740861e-05   0.44307726 0.0027167906            0   0.44036047    1.4559906    1.8990679    2.4363559 
 1805000   0.94416641 -4.3891552e-05   0.48079465  0.016361914            0   0.46443273    1.4044475    1.8852422   0.38707721 
 1810000   0.90224267 0.00013702665   0.51587637  0.028091148            0   0.48778522     1.342086    1.8579623    6.5351387 
 1815000   0.88057324 -0.00014805067   0.54335478 0.0066108485            0   0.53674393    1.3098527    1.8532075   -3.2002553 
 1820000   0.90620994 -4.8069417e-05   0.51518161 0.0099790093            0    0.5052026    1.3479873    1.8631689   0.22239947 
 1825000   0.90957033 0.00013169095   0.53172815  0.023832737            0   0.50789541    1.3529859     1.884714    6.3797652 
 1830000   0.91807406 -4.1962046e-05   0.51050514 0.0064581145            0   0.50404703    1.3656352    1.8761403   0.44383579 
 1835000   0.95852927 -0.00010549363   0.48936082 0.0017102859            0   0.48765053    1.4258123    1.9151731   -1.6856762 
 1840000   0.96481921 -7.2696396e-05   0.45914238 0.0021046993            0   0.45703769    1.4351686     1.894311  -0.58705935 
 1845000   0.98243783 -0.00012523684   0.43406046 0.0023727511            0   0.43168771    1.4613763    1.8954367    -2.379314 
 1850000   0.94272299 1.0168716e-05   0.50155542 0.00069727727            0   0.50085814    1.4023005    1.9038559     2.250948 
 1855000   0.97063135 -2.9979442e-06   0.46784708 0.0006278619            0   0.46721922    1.4438141    1.9116612    1.8093314 
 1860000   0.96415435 -6.3069243e-06    0.4865996 0.0022692101            0   0.48433039    1.4341796    1.9207792    1.7055028 
 1865000   0.88410432 -0.00011577805   0.62289411   0.02219945            0   0.60069466    1.3151052    1.9379993   -2.0138916 
 1870000    1.0119632 2.4323262e-05   0.43923806  0.013294689            0   0.42594338    1.5052953    1.9445333    2.7747674 
 1875000    1.0311786 -3.9774045e-05   0.42592608 0.0056524832            0    0.4202736    1.5338781    1.9598042   0.60218349 
 1880000    0.9749969 -6.5953067e-05   0.49742654 0.00024974449            0    0.4971768    1.4503079    1.9477344   -0.3034636 
 1885000   0.99927228 7.7133588e-05   0.47126461  0.008147435            0   0.46311717    1.4864175    1.9576821    4.5905086 
 1890000    1.0347123 -0.00011661638   0.45153632   0.01763982            0    0.4338965    1.5391346    1.9906709   -1.9898348 
 1895000    1.0391097 -6.5310391e-05   0.44229532  0.019422269            0   0.42287305    1.5456757     1.987971  -0.24129034 
 1900000    1.0157121 -7.3195428e-05   0.49219719  0.017495701            0   0.47470149    1.5108718     2.003069  -0.49533499 
 1905000    1.0322646 -1.68583e-05   0.45978452 0.0089265203            0     0.450858    1.5354937    1.9952782    1.4198482 
 1910000    1.0004374 -4.2499708e-05    0.5142713 0.0077348314            0   0.50653647    1.4881507     2.002422   0.55176528 
 1915000    1.0215918 0.0001042362   0.47908279 0.0050925721            0   0.47399021    1.5196178    1.9987006    5.5566294 
 1920000    1.0062219 -0.00010672569   0.50521848  0.015009685            0    0.4902088     1.496755    2.0019735   -1.6409302 
 1925000    1.0171596 -5.6787713e-05   0.47966505  0.011108029            0   0.46855702    1.5130249    1.9926899  0.054336002 
 1930000    1.0050295 8.1232055e-05   0.49569871 0.0039029906            0   0.49179572    1.4949814    1.9906801    4.7634009 
 1935000    1.0173262 -6.8931946e-05   0.45696319  0.002705285            0    0.4542579    1.5132727    1.9702359  -0.38264118 
 1940000   0.93437359 0.00013573762   0.58322128 0.0066332416            0   0.57658803    1.3898807     1.973102    6.6062796 
 1945000   0.99151411 9.0617754e-05   0.47654449 0.0045052698            0   0.47203922    1.4748772    1.9514217    5.0445077 
 1950000    1.0024212 -0.00018540372   0.45547648  0.014842412            0   0.44063407    1.4911015     1.946578    -4.381869 
 1955000   0.98621241 8.1287341e-06     0.454793  0.021202984            0   0.43359001     1.466991     1.921784    2.1992447 
 1960000     0.962285 7.0083495e-05   0.50601209 0.0044924296            0   0.50151966    1.4313989     1.937411    4.3295943 
 1965000    0.9519582 -5.0126766e-05   0.53064933 0.0043607322            0    0.5262886    1.4160378    1.9466871   0.23569352 
 1970000   0.94607327 -0.00013140262   0.54863824 0.0062710614            0   0.54236718     1.407284    1.9559222   -2.5292874 
 1975000   0.97415898 2.6621069e-05   0.47622098 0.0091896527            0   0.46703133    1.4490615    1.9252825    2.8339483 
 1980000    1.0103957 7.5399861e-05   0.42012657 0.0083024179            0   0.41182416    1.5029635    1.9230901    4.4967387 
 1985000    0.9849783 0.00010993674   0.47037674 0.0030947366            0     0.467282    1.4651552    1.9355319    5.6880394 
 1990000    0.9794952 0.00011649295   0.46463433  0.006782277            0   0.45785205    1.4569991    1.9216334     5.897926 
 1995000    0.9255334 -5.192313e-05    0.5330083 0.0095421195            0   0.52346618    1.3767309    1.9097392   0.13742972 
 2000000   0.96044311 -0.00013428862    0.4870554 0.0097427543            0   0.47731265    1.4286591    1.9157145   -2.6680038 
 2005000   0.98224602 5.5382899e-05   0.45824144 0.0022304955            0   0.45601094     1.461091    1.9193324    3.8097354 
 2010000    1.0302376 0.00011387305   0.38971844 0.0071041538            0   0.38261428    1.5324785    1.9221969    5.8090637 
 2015000   0.98096642 -6.0426482e-06   0.46846413  0.017325923            0    0.4511382    1.4591875    1.9276517    1.7213959 
 2020000   0.98040382 0.00011821064   0.46078921  0.011052474            0   0.44973674    1.4583507    1.9191399    5.9540629 
 2025000   0.98710651 0.00012997314   0.44389638  0.011658603            0   0.43223778    1.4683209    1.9122173    6.3486337 
 2030000   0.92071472 9.9197848e-07   0.55355967  0.013256007            0   0.54030366    1.3695631    1.9231228    1.9569823 
 2035000   0.99554332 9.3895381e-05   0.43601857 0.0059451848            0   0.43007338    1.4808707    1.9168893    5.1218516 
 2040000   0.99073793 -3.4312785e-05    0.4501292  0.011545514            0   0.43858369    1.4737227    1.9238519   0.75264215 
 2045000   0.95881945 -7.5155549e-05   0.51492288   0.02406699            0   0.49085589    1.4262439    1.9411668  -0.62414257 
 2050000    1.0060117 -6.6988297e-05   0.44118471  0.002550569            0   0.43863414    1.4964424    1.9376271  -0.34890679 
 2055000   0.96935161 -0.00014904289   0.48658425 0.00073329781            0   0.48585095    1.4419105    1.9284948   -3.1588358 
 2060000    1.0103761 -9.2097429e-06   0.39042488 0.0099767685            0   0.38044812    1.5029345    1.8933593    1.5790001 
 2065000   0.96933134 7.6409634e-06   0.45031639  0.011537028            0   0.43877936    1.4418804    1.8921968    2.1530083 
 2070000   0.92368179 1.7764599e-06   0.52956015  0.025535808            0   0.50402434    1.3739767    1.9035368    1.9641733 
 2075000   0.90588108 1.1582798e-05   0.54299256  0.031740833            0   0.51125172    1.3474981    1.8904907    2.2858502 
 2080000   0.98476237 -4.8781933e-05   0.40519299  0.010842038            0   0.39435095     1.464834     1.870027   0.20493701 
 2085000   0.97194614 4.7819905e-05   0.43677232 0.0016314518            0   0.43514087    1.4457699    1.8825422     3.514795 
 2090000   0.91496813 -7.7746944e-07   0.52646156  0.005875734            0   0.52058582    1.3610151    1.8874766     1.860939 
 2095000   0.97431893 -5.1319312e-05   0.45207277  0.011058663            0   0.44101411    1.4492994    1.9013722   0.14967301 
 2100000   0.92651714 -6.0907759e-05   0.52577801  0.013938393            0   0.51183962    1.3781942    1.9039723   -0.1750126 
 2105000   0.99920621 7.8337495e-06    0.4064054  0.017044749            0   0.38936065    1.4863192    1.8927246    2.1601166 
 2110000   0.97378639 -6.2653499e-05   0.43910427  0.003755672            0    0.4353486    1.4485073    1.8876115  -0.25096123 
 2115000   0.95199024 -0.0001013822   0.47980913 0.0024901506            0   0.47731898    1.4160855    1.8958946   -1.5646178 
 2120000   0.94333518 -1.8501421e-05   0.48639869 0.0027394102            0   0.48365928    1.4032111    1.8896098    1.2580946 
 2125000    1.0044985 -4.9200566e-05    0.3919336   0.01605097            0   0.37588263    1.4941916    1.8861252   0.20674583 
 2130000   0.98676201 -1.0774297e-05   0.42154857 0.0072333666            0   0.41431521    1.4678085    1.8893571    1.5215944 
 2135000   0.93340802 -0.00014760319   0.51634019 0.0012210592            0   0.51511914    1.3884444    1.9047846   -3.1334042 
 2140000   0.98023476 -3.1417294e-06   0.45412335  0.013947519            0   0.44017583    1.4580992    1.9122226    1.8049849 
 2145000   0.96316128 -8.3629679e-05   0.48404549  0.036041964            0   0.44800353    1.4327024    1.9167479  -0.93781179 
 2150000   0.98467028 -1.7927615e-05   0.46288709   0.02466624            0   0.43822085     1.464697    1.9275841    1.3156549 
 2155000   0.98853304 4.8028142e-06   0.44718724 0.0051587598            0   0.44202848    1.4704429    1.9176301    2.0815662 
 2160000   0.95780644 5.9802296e-05   0.49791173 0.0036286361            0    0.4942831    1.4247371    1.9226488    3.9639005 
 2165000   0.96449862 0.00017190948   0.48401456  0.010027876            0   0.47398669    1.4346917    1.9187063      7.78655 
 2170000   0.98154603 -3.2048485e-05   0.44260158   0.00692215            0   0.43567943    1.4600497    1.9026513   0.80872968 
 2175000   0.96482747 2.3707267e-05   0.46837671 0.0032613752            0   0.46511533    1.4351809    1.9035576    2.7127656 
 2180000   0.96108763 0.0001661724   0.51038439  0.010071986            0    0.5003124    1.4296179    1.9400022    7.6120201 
 2185000    0.9354311 7.3898833e-05   0.54961139  0.018994293            0    0.5306171    1.3914538    1.9410652    4.4634786 
 2190000    1.0046573 -8.9070599e-05   0.46525087  0.025693418            0   0.43955745    1.4944277    1.9596786   -1.0805979 
 2195000    1.0470755 0.00011296361   0.40733273  0.016986917            0   0.39034581    1.5575248    1.9648575    5.8206819 
 2200000   0.97745739 3.6280638e-05   0.52367879  0.035826633            0   0.48785215    1.4539679    1.9776466    3.2160258 
 2205000     1.006559 -1.2680555e-06   0.48076169  0.024347559            0   0.45641413    1.4972565    1.9780182    1.9347352 
 2210000    1.0464039 3.6981318e-05   0.44429634  0.015538622            0   0.42875772    1.5565258    2.0008222    3.2631178 
 2215000   0.98726364 -9.0988268e-05   0.52917137  0.012967407            0   0.51620396    1.4685547     1.997726   -1.1080068 
 2220000    1.0124638 6.8770698e-05   0.49457286 0.0099223944            0   0.48465047      1.50604    2.0006128     4.347986 
 2225000    1.0209491 0.00010688299   0.46717902  0.017447777            0   0.44973125    1.5186618    1.9858409    5.6341135 
 2230000    1.0205478 -8.587986e-05   0.46920804   0.00767439            0   0.46153365    1.5180648    1.9872729  -0.94409302 
 2235000   0.98602487 -2.9911915e-06   0.51015899  0.016581297            0   0.49357769     1.466712     1.976871    1.8747716 
 2240000   0.98699273 4.3139846e-05   0.49934366  0.029865201            0   0.46947846    1.4681517    1.9674953    3.4400021 
 2245000    1.0261224 7.8560432e-05   0.44275658  0.016671706            0   0.42608487     1.526357    1.9691136     4.650643 
 2250000   0.98457834 1.2994495e-05    0.5006537 0.0053895664            0   0.49526414    1.4645603     1.965214    2.4087594 
 2255000   0.97173652 -8.6981551e-05   0.50740021 0.0042440763            0   0.50315614    1.4454581    1.9528583    -1.016112 
 2260000   0.95508735 4.9027086e-05   0.54459797  0.029730896            0   0.51486708    1.4206924    1.9652904    3.6387483 
 2265000   0.98367983 9.7198412e-06   0.50253066  0.013723012            0   0.48880764    1.4632237    1.9657544     2.297525 
 2270000    1.0182101 8.9042586e-06   0.44495704 0.00024060802            0   0.44471643    1.5145875    1.9595446    2.2634766 
 2275000    1.0069411 0.00011364039   0.46800517 0.00070123998            0   0.46730393     1.497825    1.9658301    5.8447554 
 2280000    1.0341268 0.00013508398    0.4267916 0.0044556039            0     0.422336    1.5382636    1.9650552    6.5759217 
 2285000   0.97574763 -5.2547582e-05   0.49735832   0.01328246            0   0.48407586    1.4514246    1.9487829   0.15515879 
 2290000   0.97003941 -6.2143318e-05   0.47852245  0.015809852            0   0.46271259    1.4429336    1.9214561  -0.19970252 
 2295000   0.93894477 6.9769403e-05     0.518325  0.021293704            0   0.49703129    1.3966803    1.9150053    4.2964676 
 2300000   0.97656349 2.7221971e-05   0.42626071  0.012178824            0   0.41408188    1.4526382    1.8788989    2.8080755 
 2305000    1.0154365 -4.0366878e-05   0.36963337 0.0081283377            0   0.36150503    1.5104618    1.8800951   0.50223904 
 2310000   0.94992395 5.2570958e-05   0.48026956 0.0059044908            0   0.47436507    1.4130119    1.8932814    3.6877035 
 2315000   0.96407836 6.5382512e-05   0.46576694  0.014423832            0    0.4513431    1.4340666    1.8998335    4.1315566 
 2320000   0.98402278 -4.6962928e-05   0.41252976  0.026131209            0   0.38639855    1.4637339    1.8762636   0.27326236 
 2325000   0.96642637 4.766296e-05   0.46189511  0.019602892            0   0.44229221    1.4375592    1.8994543      3.52635 
 2330000   0.97994682 0.00014288565   0.44895957  0.020210237            0   0.42874933    1.4576709    1.9066305    6.7837939 
 2335000   0.98756199 -5.7132417e-05   0.42522517  0.007995357            0   0.41722981    1.4689985    1.8942236 -0.055896214 
 2340000   0.97044886 -7.3633329e-05   0.45209123   0.01930398            0   0.43278725    1.4435427    1.8956339  -0.61771705 
 2345000   0.95612369 -4.9440272e-05   0.47333768  0.007446687            0   0.46589099     1.422234    1.8955717   0.20801037 
 2350000   0.97880495 -7.4121187e-05   0.40613421  0.013424342            0   0.39270987    1.4559724    1.8621066  -0.66789661 
 2355000   0.95216873 -5.3035972e-06   0.47964471 0.0082132183            0    0.4714315     1.416351    1.8959957    1.7149663 
 2360000   0.92058515 -7.2558567e-05   0.53781981  0.017446343            0   0.52037346    1.3693704    1.9071902  -0.56947554 
 2365000    0.9767812 -1.9615155e-05   0.47510892  0.020733902            0   0.45437501     1.452962    1.9280709    1.2585403 
 2370000   0.96188335 6.5671052e-05   0.49713101   0.01432566            0   0.48280535    1.4308015    1.9279325    4.1695044 
 2375000    0.9873653 1.8947069e-05   0.46218591  0.035655329            0   0.42653058    1.4687059    1.9308918    2.5776184 
 2380000   0.93295971 -8.2062155e-05   0.54308294  0.029730784            0   0.51335215    1.3877776    1.9308605  -0.87019437 
 2385000   0.94984566 -0.00012533712   0.54530364  0.021366304            0   0.52393733    1.4128954    1.9581991   -2.3199746 
 2390000    1.0360469 -8.6316289e-05   0.41776294  0.012843509            0   0.40491943    1.5411198    1.9588828  -0.98737991 
 2395000    1.0116012 -5.76175e-06   0.45420189  0.030578511            0   0.42362338    1.5047568    1.9589587    1.7622909 
 2400000    1.0500198 6.9590914e-05   0.40751737  0.028014504            0   0.37950286    1.5619045    1.9694218    4.3447917 
 2405000    1.0528245 6.9373863e-05   0.41918996 0.0097501606            0    0.4094398    1.5660764    1.9852663    4.3532275 
 2410000    1.0122345 4.6105362e-06   0.47768286  0.017693812            0   0.45998905    1.5056988    1.9833817    2.1407546 
 2415000    1.0033056 0.00014482046   0.50130016  0.029525511            0   0.47177465    1.4924171    1.9937173    6.9369224 
 2420000    1.0298865 5.7598834e-05   0.44584408 0.0065803421            0   0.43926374    1.5319562    1.9778003    3.9438405 
 2425000    1.0202143 2.8226691e-05   0.45464252  0.011803212            0   0.44283931    1.5175687    1.9722112    2.9356823 
 2430000   0.97099015 3.579887e-05   0.53247968  0.037804506            0   0.49467517    1.4443479    1.9768275    3.1987623 
 2435000     1.008086 0.00011827203   0.47696172  0.043734623            0    0.4332271    1.4995279    1.9764897    6.0135084 
 2440000    1.0613689 2.5386114e-06   0.38705396  0.017281937            0   0.36977203    1.5787862    1.9658402    2.0524915 
 2445000    0.9867128 -0.00027823425   0.48604599 0.0024956354            0   0.48355036    1.4677353    1.9537813    -7.543281 
 2450000   0.97348816 -0.0001169576   0.51245155            0            0   0.51245155    1.4480636    1.9605152   -2.0316374 
 2455000   0.99322921 -1.1099918e-05   0.46781791 0.0097741437            0   0.45804376    1.4774284    1.9452464    1.5663692 
 2460000    1.0419153 5.3717444e-05   0.38887871  0.013767448            0   0.37511126     1.549849    1.9387277    3.7722831 
 2465000   0.97669265 8.3860231e-05   0.49323354 0.0025017152            0   0.49073182    1.4528303    1.9460638    4.8084931 
 2470000    1.0448637 0.00010092221   0.39200802 0.0018801527            0   0.39012787    1.5542348    1.9462428    5.3910544 
 2475000    1.0036909 7.5641313e-05   0.45338798 0.0045621301            0   0.44882585    1.4929902    1.9463782    4.5282683 
 2480000    0.9940704 -5.9881459e-05   0.46255754 0.0034603327            0   0.45909721    1.4786797    1.9412373  -0.10271654 
 2485000    1.0269157 3.1793561e-05   0.44486226 0.0095698744            0   0.43529239    1.5275371    1.9723994    3.0576196 
 2490000   0.99763822 1.1000824e-05   0.49997973  0.026650727            0     0.473329    1.4839869    1.9839666    2.3594614 
 2495000    1.0113117 -4.806392e-05   0.46722376  0.014080827            0   0.45314294    1.5043262      1.97155   0.33096814 
 2500000    1.0353165 9.9598646e-06   0.44868471  0.016686154            0   0.43199856    1.5400333     1.988718    2.3286814 
 2505000    1.0114687 4.6507434e-05   0.46706227  0.010703505            0   0.45635877    1.5045597    1.9716219    3.5590757 
 2510000    1.0370967 -6.2625294e-05   0.42463039  0.016396429            0   0.40823396    1.5426813    1.9673117  -0.17029831 
 2515000   0.98017507 6.9041267e-07   0.50264056  0.027515681            0   0.47512488    1.4580104     1.960651    1.9842171 
 2520000    1.0487655 0.00010351127   0.42578524  0.012409267            0   0.41337597    1.5600387    1.9858239    5.5190085 
 2525000   0.98329178 -2.6104716e-05   0.53018277  0.055867368            0    0.4743154    1.4626465    1.9928293    1.1017883 
 2530000    1.0326018 -1.108636e-05   0.45051052 0.0097513274            0   0.44075919    1.5359952    1.9865057    1.6080913 
 2535000    1.0114172 -0.0001186242    0.5196515  0.037382739            0   0.48226876    1.5044831    2.0241346   -2.0249047 
 2540000   0.99804456 -0.00017531591   0.55392988  0.047045527            0   0.50688436    1.4845913    2.0385212   -3.9455953 
 2545000     1.061993 6.9725235e-05   0.47060866  0.030531284            0   0.44007737    1.5797146    2.0503232    4.4302779 
 2550000    1.0627372 -1.143172e-06   0.47561341 0.0074396529            0   0.46817376    1.5808216     2.056435    2.0174147 
 2555000    1.0329066 0.00011669835   0.51528205  0.010999919            0   0.50428214    1.5364486    2.0517306    6.0350342 
 2560000    1.0093787 -0.00020487022   0.51052681  0.028916608            0    0.4816102    1.5014508    2.0119776   -4.9809259 
 2565000    1.0573971 -0.00011631304   0.41269613  0.019031712            0   0.39366442    1.5728782    1.9855744   -1.9845773 
 2570000    1.0343403 4.337634e-05   0.43636926  0.037317922            0   0.39905134    1.5385812    1.9749504    3.4555295 
 2575000   0.99501099 -1.6520745e-05   0.49350433  0.020184808            0   0.47331952    1.4800788    1.9735832    1.4096751 
 2580000    1.0014717 -2.7737825e-05   0.44203042  0.012661011            0    0.4293694    1.4896891    1.9317196   0.98493514 
 2585000   0.99876998 -1.8252504e-05   0.44707257  0.016278226            0   0.43079435    1.4856703    1.9327429    1.3097241 
 2590000    1.0123777 -3.5994769e-05   0.43546042   0.01091149            0   0.42454893    1.5059119    1.9413723   0.71275083 
 2595000    1.0055424 6.3766908e-05   0.44264991  0.019861045            0   0.42278887    1.4957444    1.9383943    4.1149714 
 2600000    1.0022448 -0.00013241457   0.45652944 0.0034894987            0   0.45303995    1.4908391    1.9473686    -2.572382 
 2605000   0.96708814 1.4667453e-05   0.51296731  0.012386465            0   0.50058084    1.4385436    1.9515109      2.45216 
 2610000   0.97778611 2.8880725e-05     0.478295  0.015371856            0   0.46292315    1.4544568    1.9327518    2.9185473 
 2615000    1.0180673 -0.00010279583   0.40758012 0.0069593923            0   0.40062072    1.5143751    1.9219553    -1.586809 
 2620000   0.97835419 -0.00014906869   0.47573587 0.0097737555            0   0.46596212    1.4553019    1.9310377   -3.1571734 
 2625000   0.99332869 9.7458622e-05   0.47013735   0.02502677            0   0.44511058    1.4775764    1.9477138    5.2743014 
 2630000   0.98018172 -1.9340979e-05   0.48934308  0.017147813            0   0.47219526    1.4580203    1.9473634    1.2871913 
 2635000    1.0338107 -0.00019155594    0.4105682  0.009317041            0   0.40125116    1.5377934    1.9483616    -4.590081 
 2640000   0.95935568 -9.2262036e-05   0.50852656  0.010030507            0   0.49849606    1.4270416    1.9355681   -1.2136427 
 2645000   0.95924306 7.5834223e-06   0.48770234 0.0095506558            0   0.47815168    1.4268741    1.9145764    2.1734239 
 2650000    1.0038029 -1.0216749e-05   0.41100469  0.012748107            0   0.39825659    1.4931568    1.9041615    1.5554298 
 2655000   0.96750823 -0.00014847927   0.44541149  0.010210508            0   0.43520098    1.4391685      1.88458   -3.1835125 
 2660000    1.0209649 4.3050988e-07   0.37828585  0.017425716            0   0.36086013    1.5186853    1.8969711    1.9116659 
 2665000   0.94184053 -5.8426025e-05   0.49255509  0.011927657            0   0.48062743    1.4009878    1.8935429  -0.10073211 
 2670000    1.0007248 -4.7430087e-05   0.39199864  0.004244802            0   0.38775383    1.4885781    1.8805767   0.26162978 
 2675000   0.99105311 7.4741818e-06   0.40502155  0.011197174            0   0.39382438    1.4741915    1.8792131    2.1343318 
 2680000   0.94454808 -0.00012792578   0.45819318  0.011712714            0   0.44648047    1.4050153    1.8632085   -2.5033249 
 2685000   0.93152855 -3.44506e-05   0.49898961  0.018142353            0   0.48084725    1.3856487    1.8846383   0.70872452 
 2690000   0.99303372 6.3137018e-05   0.44643265  0.009842413            0   0.43659024    1.4771377    1.9235703    4.0786472 
 2695000   0.94705452 6.5780662e-05   0.53968859 0.0035401125            0   0.53614848    1.4087436    1.9484322    4.1937455 
 2700000    1.0033417 0.00010434344   0.46242504  0.003406518            0   0.45901853    1.4924708    1.9548958    5.5164852 
 2705000    1.0095573 -0.00013918171   0.44790797  0.017387127            0   0.43052084    1.5017165    1.9496245   -2.8011113 
 2710000   0.96846938 -0.00013704021   0.51610886  0.038377686            0   0.47773118    1.4405982    1.9567071   -2.7209321 
 2715000   0.94725125 -2.0675638e-05   0.51787735 0.0090496187            0   0.50882773    1.4090362    1.9269136    1.2211851 
 2720000   0.96509641 -5.740963e-05   0.50682235  0.015256828            0   0.49156552    1.4355809    1.9424033 -0.017178797 
 2725000   0.97756992 -9.4684278e-05    0.4939267  0.036087695            0   0.45783901    1.4541353     1.948062    -1.283828 
 2730000    1.0297287 3.6285441e-05    0.4152243  0.018342178            0   0.39688212    1.5317215    1.9469458    3.1854889 
 2735000    1.0316249 0.00021367379   0.37847437 0.0019555543            0   0.37651882     1.534542    1.9130164    9.2064149 
 2740000   0.98822273 8.1784982e-05    0.4695995 0.0077070322            0   0.46189246    1.4699813    1.9395808    4.7311749 
 2745000    1.0155328 -0.00011923318   0.41255345  0.011593275            0   0.40096017     1.510605    1.9231584   -2.1466675 
 2750000   0.98179063 -8.8347192e-05   0.44616885  0.014971006            0   0.43119784    1.4604136    1.9065824   -1.1090017 
 2755000   0.97359804 -2.8068958e-05   0.45025342   0.02142199            0   0.42883143    1.4482271    1.8984805   0.94039339 
 2760000   0.93817689 8.2127746e-05    0.5017037  0.041607186            0   0.46009651    1.3955381    1.8972418    4.7005356 
 2765000   0.98245636 8.2305017e-05   0.43521292  0.034929506            0   0.40028341    1.4614038    1.8966167    4.7059613 
 2770000   0.94461143 6.1003226e-05   0.49619366   0.01989941            0   0.47629425    1.4051095    1.9013032    3.9835466 
 2775000    1.0096723 -1.0593827e-05   0.38905646  0.023553781            0   0.36550268    1.5018875    1.8909439    1.5293413 
 2780000   0.98643674 6.9504319e-05   0.43216926  0.022646457            0    0.4095228    1.4673246    1.8994939     4.271908 
 2785000   0.96936037 6.1473532e-05   0.45741941  0.011581622            0   0.44583778    1.4419236     1.899343    3.9976395 
 2790000   0.97038545 -6.7088369e-05   0.44813584 0.0029664281            0   0.44516942    1.4434484    1.8915842  -0.39836546 
 2795000   0.93825351 0.00010581524   0.47866238 0.00043620047            0   0.47822618    1.3956521    1.8743145    5.4861413 
 2800000   0.96681608 4.7196181e-05   0.40942835 0.0020601964            0   0.40736815    1.4381389    1.8475673    3.4585302 
 2805000   0.97038248 -9.0730487e-05   0.42170008 0.0060050538            0   0.41569502    1.4434439     1.865144   -1.2317899 
 2810000   0.89792729 -8.3775564e-05   0.51238321  0.021484573            0   0.49089864    1.3356668      1.84805   -1.0114892 
 2815000   0.99099085 -4.7262371e-05   0.39877876  0.010296895            0   0.38848187    1.4740989    1.8728776   0.25965539 
 2820000     1.038668 2.8387784e-05   0.35473938  0.011745383            0     0.342994    1.5450186     1.899758    2.8687277 
 2825000    1.0008508 0.00010351295   0.43715402  0.032462732            0   0.40469129    1.4887656    1.9259196    5.4591617 
 2830000   0.95343516 0.00010912724   0.50039863  0.010702657            0   0.48969598    1.4182348    1.9186334    5.6435098 
 2835000   0.98098055 0.00012697287   0.45865757  0.017222398            0   0.44143517    1.4592086    1.9178661    6.2518733 
 2840000   0.99938495 0.00018675084   0.40549736  0.024359831            0   0.38113752    1.4865851    1.8920825    8.2665111 
 2845000   0.94594023 -0.00010055323   0.47082224   0.01047718            0   0.46034506    1.4070861    1.8779083   -1.5543087 
 2850000   0.93564476 -0.00013761533    0.4771547 0.0048305566            0   0.47232415    1.3917716    1.8689263   -2.8283437 
 2855000   0.99572404 9.9869279e-05   0.36581838  0.016244037            0   0.34957434    1.4811395    1.8469579    5.2558293 
 2860000   0.93877709 0.0001531827   0.46855694  0.013885508            0   0.45467143    1.3964309    1.8649879    7.0936239 
 2865000   0.95177206 1.7694349e-05   0.47190562 0.0017659665            0   0.47013965    1.4157609    1.8876666    2.4916337 
 2870000   0.94004451 -5.5230445e-05   0.47971251 0.0053798577            0   0.47433265    1.3983162    1.8780287 -0.0071704684 
 2875000   0.97960313 7.0570339e-05   0.39543857 0.0052310292            0   0.39020754    1.4571597    1.8525982    4.2613991 
 2880000    0.9724563 -0.00011651981   0.43316111  0.012938245            0   0.42022286    1.4465287    1.8796898   -2.0975198 
 2885000   0.93403681 -6.8088177e-05    0.4838326  0.039823597            0     0.444009    1.3893798    1.8732124  -0.45086408 
 2890000   0.94464611 8.2871608e-06    0.4654825  0.031865175            0   0.43361733    1.4051611    1.8706436     2.153512 
 2895000   0.95096554 6.7948451e-05   0.46152565  0.034964958            0   0.42656069    1.4145612    1.8760869     4.195394 
 2900000   0.98447387 0.00015190249   0.41382994  0.015555365            0   0.39827457    1.4644049    1.8782348    7.0631733 
 2905000   0.95005361 -4.7457805e-05   0.45937303  0.012740818            0   0.44663221    1.4132048    1.8725778   0.25268471 
 2910000   0.92699677 -6.5225584e-05   0.50053007  0.065903883            0   0.43462619    1.3789077    1.8794378  -0.34692884 
 2915000   0.96474624 5.5673387e-05    0.4171728  0.015501282            0   0.40167152      1.43506    1.8522328    3.7525511 
 2920000   0.97375323 3.6796779e-05   0.40285365  0.019502712            0   0.38335094    1.4484579    1.8513116    3.1073083 
 2925000   0.87180437 -9.2606166e-05   0.51824985  0.018579949            0   0.49966991     1.296809    1.8150589   -1.3458983 
 2930000   0.91267738 -0.00010531763   0.44848306  0.005442729            0   0.44304033    1.3576076    1.8060907    -1.788751 
 2935000   0.90239064 -9.938021e-06   0.45650921  0.003855801            0   0.45265341    1.3423061    1.7988153    1.4595975 
 2940000   0.91618467 7.7116112e-05    0.4287844  0.027227002            0    0.4015574    1.3628247    1.7916091     4.423839 
 2945000    0.8760536 2.1281704e-05   0.47427524  0.041885718            0   0.43238953    1.3031297     1.777405    2.5038205 
 2950000   0.91918821 -1.0150368e-05   0.42742321  0.024487878            0   0.40293533    1.3672925    1.7947157    1.4482498 
 2955000   0.90582321 -0.00010494772   0.45497838  0.018734335            0   0.43624405     1.347412    1.8023904   -1.7798252 
 2960000   0.93781151 2.3751289e-05   0.41615905 0.0069990139            0   0.40916004    1.3949946    1.8111537    2.6218643 
 2965000   0.90719422 0.00017353477   0.43820926 0.0020410651            0   0.43616819    1.3494514    1.7876607    7.7109808 
 2970000   0.87197947 5.9401164e-05   0.47615229   0.01198555            0   0.46416674    1.2970695    1.7732218    3.8007815 
 2975000   0.90586674 -2.9422142e-05   0.41161437  0.016900728            0   0.39471365    1.3474768    1.7590912   0.75481537 
 2980000   0.87315041 3.1078599e-05   0.46226389  0.049983016            0   0.41228087    1.2988112    1.7610751    2.8218913 
 2985000   0.84553875 0.00015631359   0.50463155  0.031755731            0   0.47287581    1.2577389    1.7623704    7.0978744 
 2990000   0.83024521 4.243641e-05   0.51837852  0.023058448            0   0.49532007    1.2349897    1.7533683    3.2018644 
 2995000   0.85855792 -3.8661645e-05    0.4844772  0.011570022            0   0.47290718    1.2771049    1.7615821   0.44193131 
[...]
19285000     1.101372 -8.9764476e-05   0.48459651   0.01523361            0    0.4693629    1.6382909    2.1228874  -0.94107337 
19290000    1.0973627 -4.6088272e-05   0.50633779  0.018933519            0   0.48740427    1.6323271    2.1386649   0.56551851 
19295000    1.0615824 -7.38244e-05   0.56789701 0.0050043546            0   0.56289266    1.5791038    2.1470008  -0.37287206 
19300000     1.063441 4.514556e-05   0.57628442 0.0038064558            0   0.57247797    1.5818685    2.1581529    3.6991214 
19305000    1.0601011 9.7381198e-05   0.58427994 0.0048490926            0   0.57943085    1.5769004    2.1611803    5.4851252 
19310000    1.0842247 -0.00012995794   0.53744385 0.0067159541            0    0.5307279    1.6127842    2.1502281   -2.2856696 
19315000    1.0791119 -0.00010953393    0.5229092  0.011724898            0    0.5111843    1.6051789    2.1280881   -1.6106701 
19320000    1.0468221 -7.9293088e-05    0.5451854  0.029921144            0   0.51526425    1.5571479    2.1023333  -0.60420411 
19325000    1.0724736 -3.0526892e-05   0.51179935 0.0088743224            0   0.50292503    1.5953044    2.1071038    1.0651192 
19330000    1.1250417 -0.00015263681   0.43279669 0.0072883875            0    0.4255083    1.6734995    2.1062962   -3.1037069 
19335000    1.0710233 1.0205368e-05   0.52014271  0.019096769            0   0.50104594    1.5931471    2.1132898     2.461633 
19340000    1.0180059 -1.0717967e-05   0.58686626  0.022757142            0   0.56410912    1.5142838      2.10115    1.7353101 
19345000    1.0641747 2.4218055e-05   0.52850936  0.036372125            0   0.49213723    1.5829599    2.1114692    2.9381122 
19350000    1.0673992 -0.0001372225   0.51881853  0.028311862            0   0.49050667    1.5877563    2.1065749   -2.5772866 
19355000    1.1244813 -4.4569016e-05   0.45223069  0.027627341            0   0.42460335    1.6726659    2.1248966   0.60360746 
19360000    1.0663545 4.8225603e-05   0.55163825  0.018401557            0   0.53323669    1.5862024    2.1378406    3.7839412 
19365000    1.0038218 6.5252636e-05   0.61099239  0.016935482            0   0.59405691    1.4931849    2.1041773    4.3314673 
19370000    1.0909579 6.8986946e-06   0.49665862   0.01260295            0   0.48405566    1.6227999    2.1194585     2.354934 
19375000    1.0774161 3.7609398e-05   0.50776951 0.0076625997            0   0.50010691    1.6026565     2.110426    3.3941601 
19380000    1.0228413 -5.3559025e-05   0.60778842  0.031176898            0   0.57661152    1.5214764    2.1292648   0.30111674 
19385000    1.1078494 -1.2201046e-05   0.47836215  0.044925525            0   0.43343662     1.647926    2.1262881    1.7098257 
19390000    1.0722378 -7.6994584e-05   0.50738794  0.025353104            0   0.48203484    1.5949537    2.1023416  -0.52574016 
19395000    1.0667528 -9.7264006e-05   0.51075447  0.035765331            0   0.47498914    1.5867947    2.0975492   -1.2223955 
19400000   0.95959242 3.6822612e-05   0.62778018   0.02769562            0   0.60008456    1.4273937    2.0551739    3.3120524 
19405000    1.0600386 7.8305018e-05    0.4829306   0.02392866            0   0.45900194    1.5768074     2.059738    4.7325493 
19410000    1.0321545 -1.8730521e-05    0.5120201  0.052160422            0   0.45985968    1.5353298    2.0473499    1.4080148 
19415000   0.98362618 -1.2844193e-05   0.58051516  0.061055767            0    0.5194594    1.4631439    2.0436591     1.605244 
19420000   0.99057649 2.5784301e-05   0.58790572  0.047076475            0   0.54082924    1.4734825    2.0613882    2.9414924 
19425000    1.0803572 3.2963711e-05   0.46442146  0.014800122            0   0.44962134    1.6070313    2.0714528    3.1966141 
19430000    1.0372513 4.934411e-05   0.49822859  0.011628077            0   0.48660051    1.5429114      2.04114    3.7254189 
19435000   0.99565193 8.8691865e-06   0.54480596  0.015214807            0   0.52959115    1.4810322    2.0258382    2.3285731 
19440000   0.96989049 2.8192444e-05   0.54720081  0.019951006            0    0.5272498    1.4427121    1.9899129     2.952215 
19445000   0.97041874 5.2924886e-05    0.5469221  0.021289866            0   0.52563223    1.4434979      1.99042    3.7969227 
19450000   0.97749457 2.3157933e-05   0.54462713  0.033481514            0   0.51114561    1.4540232    1.9986503    2.7891077 
19455000   0.96665062 0.00012556777   0.56510535  0.034826318            0   0.53027903    1.4378928    2.0029981    6.2890448 
19460000    1.0074571 -3.1415821e-05   0.48072254  0.031793149            0   0.44892939    1.4985925     1.979315   0.90698833 
19465000    1.0051686 -0.00018184802   0.50509745  0.011430817            0   0.49366663    1.4951883    2.0002857   -4.2067935 
19470000    1.0728066 -2.5470068e-05   0.41392083 0.0074233986            0   0.40649744    1.5957999    2.0097207    1.1403424 
19475000    1.0450038 1.3127135e-05   0.45797498  0.018323012            0   0.43965196    1.5544431    2.0124181    2.4604909 
19480000    1.0242111 -8.3085281e-05   0.51945147  0.011068973            0    0.5083825     1.523514    2.0429654  -0.79301216 
19485000    1.0198441 5.0867139e-05   0.52782534  0.013628461            0   0.51419688    1.5170181    2.0448434    3.7811084 
19490000    1.0687965 0.00018143439   0.47338597  0.034405273            0    0.4389807    1.5898348    2.0632208    8.2561813 
19495000     1.048768 1.6154701e-05   0.48667237  0.012341401            0   0.47433097    1.5600424    2.0467147    2.5981285 
19500000    1.0606849 6.4602073e-05   0.45970283  0.014303388            0   0.44539945    1.5777687    2.0374716    4.2425557 
19505000    1.0534822 5.6558318e-05   0.47852754   0.01093643            0   0.46759112    1.5670547    2.0455823    3.9761062 
19510000   0.99285109 2.2932418e-05   0.55481379  0.026506261            0   0.52830753     1.476866    2.0316798    2.8144397 
19515000    1.0347705 0.00010418797   0.51417618  0.021425586            0   0.49275059    1.5392211    2.0533973    5.6096801 
19520000    1.0625883 -2.0366759e-05   0.48272449  0.025903389            0    0.4568211    1.5806001    2.0633246    1.3681392 
19525000    1.0357355 -0.00017320407   0.52546003  0.017643013            0   0.50781702    1.5406565    2.0661165   -3.8459158 
19530000   0.98355044 2.1450484e-05   0.60805138  0.024086761            0   0.58396462    1.4630313    2.0710827    2.8032592 
19535000    1.0286972 -2.9518278e-05   0.54620007  0.025981277            0   0.52021879    1.5301871    2.0763872      1.06883 
19540000    1.0789041 -5.0389876e-05   0.45409549  0.023283371            0   0.43081212    1.6048699    2.0589654   0.33899096 
19545000    1.0014183 -7.152065e-05   0.55465483  0.039727383            0   0.51492745    1.4896098    2.0442646   -0.3969736 
19550000   0.97774799 -5.0384194e-05   0.57859553  0.015176676            0   0.56341885    1.4544001    2.0329957   0.31321516 
19555000    1.0094569 -1.4219163e-05   0.55410483    0.0241279            0   0.52997693    1.5015671    2.0556719    1.5703245 
19560000    1.0830336 7.4641431e-07   0.45712536  0.027342049            0   0.42978331    1.6110126    2.0681379    2.0936155 
19565000    1.0225066 9.9557232e-05   0.54348024  0.036399533            0   0.50708071    1.5209786    2.0644588     5.462679 
19570000   0.98007459 5.1508676e-05   0.60100971  0.031136494            0   0.56987321     1.457861    2.0588707    3.8170335 
19575000    1.0141333 -4.0447368e-05   0.55093607  0.033769022            0   0.51716705    1.5085233    2.0594594    0.6788559 
19580000    1.0901927 -4.7337902e-05   0.43857583  0.013602548            0   0.42497328    1.6216616    2.0602374   0.44443701 
19585000    1.0088322 1.0648343e-05   0.52528117  0.016239138            0   0.50904203    1.5006379     2.025919    2.3893825 
19590000    1.0597581 3.6654799e-05   0.46493572  0.018248597            0   0.44668712    1.5763902     2.041326    3.2924764 
19595000    1.0278521 -5.6919533e-05   0.55116691    0.0202885            0   0.53087841      1.52893    2.0800969   0.13724353 
19600000    1.0740406 2.0120047e-05   0.44990639  0.034406792            0   0.41549959    1.5976355    2.0475418    2.7343061 
19605000    1.0408358 5.1179568e-05   0.48930393  0.021424434            0   0.46787949    1.5482432    2.0375471    3.7844764 
19610000    1.0474546 -5.6302449e-05   0.49147904  0.035858268            0   0.45562078    1.5580887    2.0495677   0.12777746 
19615000    1.0237464 -0.00012163594   0.50779177  0.056425609            0   0.45136616    1.5228228    2.0306145   -2.1212256 
19620000    1.0866405 4.8353154e-06   0.41681399  0.019541063            0   0.39727292    1.6163777    2.0331917    2.1982371 
19625000    1.0118364 0.0001297518    0.5518117  0.043264001            0    0.5085477    1.5051067    2.0569184    6.4857799 
19630000    1.0371764 -8.7218272e-06   0.52639129   0.01645869            0    0.5099326    1.5427999    2.0691912    1.7714862 
19635000     1.035724 7.6318468e-06   0.54623227  0.026675729            0   0.51955654    1.5406395    2.0868717    2.3473721 
19640000    1.0841045 5.9458331e-05   0.45461426 0.0028929671            0   0.45172129    1.6126054    2.0672197    4.0967307 
19645000    1.0239253 -0.00011483776    0.5331829 0.0022428627            0   0.53094004    1.5230888    2.0562717   -1.8635239 
19650000    1.0734686 -1.4467803e-05   0.46658092  0.012178426            0    0.4544025    1.5967845    2.0633654    1.5695311 
19655000     1.047805 4.8892624e-05   0.53185049   0.01326972            0   0.51858077      1.55861    2.0904605    3.7593287 
19660000    1.0746025 -8.3362857e-06   0.48782861 0.0084893631            0   0.47933925    1.5984713    2.0862999    1.8017546 
19665000    1.0299383 -1.4133592e-05   0.53702253  0.010024669            0   0.52699786    1.5320333    2.0690558    1.5866292 
19670000    1.1334814 -5.8270823e-05   0.40124795  0.011913635            0   0.38933431    1.6860536    2.0873015  0.098324103 
19675000     1.088592 -6.6906209e-05   0.46722432  0.016979021            0    0.4502453    1.6192806    2.0865049  -0.19722699 
19680000    1.0132698 -3.5999016e-05   0.58670094  0.036797789            0   0.54990315    1.5072389    2.0939398    0.8651734 
19685000    1.0621582 1.9575359e-05   0.51106748  0.016018564            0   0.49504891    1.5799603    2.0910278    2.7592001 
19690000    1.0320172 0.00019363879   0.54747399 0.0044038754            0   0.54307011    1.5351256    2.0825996    8.6921369 
19695000    1.0464157 0.00019881155   0.53953265 0.0097710461            0    0.5297616    1.5565434     2.096076    8.8821769 
19700000    1.0408179 -7.2839927e-05   0.57366339 0.0077630568            0   0.56590033    1.5482166      2.12188  -0.36438949 
19705000    1.0282347 -0.00010719505   0.60351537 0.0088325493            0   0.59468282    1.5294992    2.1330145   -1.5259099 
19710000    1.1581755 -7.1599872e-05   0.43123317 0.0081911012            0   0.42304207    1.7227861    2.1540192  -0.28992305 
19715000    1.0866545 6.5586914e-05   0.54660589  0.010717921            0   0.53588797    1.6163986    2.1630045    4.4017044 
19720000    1.0767135 1.8559669e-05   0.56514889  0.017083288            0    0.5480656    1.6016114    2.1667603    2.8002637 
19725000     1.110614 3.6342709e-05   0.50145104  0.020542676            0   0.48090837    1.6520384    2.1534894    3.3939872 
19730000      1.12731 0.00013634656   0.47946533  0.010730406            0   0.46873492    1.6768737     2.156339    6.8103015 
19735000    1.1026392 6.4701298e-05   0.51701149 0.0072419106            0   0.50976958    1.6401758    2.1571872    4.3656582 
19740000    1.0607177 0.00010639626   0.59957042  0.026225821            0    0.5733446    1.5778176     2.177388    5.8090471 
19745000     1.036065 -4.183292e-06   0.61358881  0.019483406            0    0.5941054    1.5411466    2.1547354    2.0119457 
19750000    1.0735628 -8.418231e-05   0.54867844  0.021922781            0   0.52675566    1.5969247    2.1456032  -0.72781969 
19755000    1.1154781 -0.00011063995   0.49623031  0.014233132            0   0.48199718    1.6592736    2.1555039   -1.6210064 
19760000     1.148131 -0.00010493096   0.45526316  0.037578898            0   0.41768426    1.7078449     2.163108   -1.4185353 
19765000    1.0430365 9.5274276e-05   0.59428065   0.02292947            0   0.57135118    1.5515168    2.1457975    5.3978261 
19770000    1.1251222 5.8364004e-05   0.49259156  0.013335456            0   0.47925611    1.6736192    2.1662108    4.1583688 
19775000    1.0934694 -5.0738737e-05   0.54389897  0.031332134            0   0.51256684    1.6265357    2.1704347   0.43855243 
19780000    1.1482405 7.5915809e-05   0.48004269  0.048514368            0   0.43152832    1.7080078    2.1880504      4.77931 
19785000    1.1057822 -3.353542e-05   0.54574627  0.020149611            0   0.52559665     1.644851    2.1905973    1.0459216 
19790000    1.1113245 -0.00011894762   0.55330195  0.015549411            0   0.53775253    1.6530951    2.2063971   -1.8536817 
19795000    1.0475662 3.1492652e-05    0.6209377  0.028094777            0   0.59284292    1.5582547    2.1791924    3.2541415 
19800000     1.128664 0.00011322441   0.52806035  0.033881908            0   0.49417845    1.6788877    2.2069481    6.0716745 
19805000     1.117918 -4.9014761e-05   0.54465505  0.037649296            0   0.50700575     1.662903    2.2075581   0.53452089 
19810000    1.0809854 -0.00020826333   0.63304585  0.042966409            0   0.59007944    1.6079658    2.2410117     -4.86771 
19815000    1.1687016 -6.9311915e-05   0.50901004 0.0064109801            0   0.50259906    1.7384436    2.2474537  -0.11839304 
19820000    1.1986247 6.459571e-05   0.47532852 0.0044573212            0    0.4708712    1.7829542    2.2582827    4.4631496 
19825000    1.1438269 0.00010853293   0.54914029 0.0052439378            0   0.54389636    1.7014425    2.2505828    5.9551733 
19830000    1.1471968 3.976396e-05   0.55416346  0.012072094            0   0.54209137    1.7064552    2.2606187    3.6178952 
19835000    1.1566461 -6.7135106e-05   0.52636323  0.019097377            0   0.50726585    1.7205111    2.2468743 -0.044670673 
19840000    1.1481913 -0.00012601692   0.58738709  0.016704346            0   0.57068274    1.7079346    2.2953217   -2.0060559 
19845000    1.1349077 -5.4635299e-05   0.61096037  0.012715369            0     0.598245    1.6881752    2.2991356   0.43425073 
19850000    1.1739679 8.3297013e-05   0.56072464 0.0049622208            0   0.55576242    1.7462773    2.3070019    5.1502066 
19855000    1.1896301 6.1788598e-05    0.5371458  0.021486346            0   0.51565946    1.7695747    2.3067205    4.4157714 
19860000    1.1793879 -2.0697703e-05   0.54966176  0.034529413            0   0.51513235    1.7543395    2.3040012    1.5975197 
19865000    1.2069278 9.5448961e-06   0.50204447  0.044579819            0   0.45746465    1.7953051    2.2973496    2.6231487 
19870000    1.1453737 4.7232783e-05   0.57921641  0.051190208            0    0.5280262    1.7037434    2.2829598    3.8951722 
19875000    1.1558756 -8.0569087e-06   0.55584849   0.06053752            0   0.49531097     1.719365    2.2752135    2.0002043 
19880000    1.1599694 3.5224736e-05    0.5540796  0.020282654            0   0.53379694    1.7254545    2.2795341    3.4818717 
19885000    1.1749115 6.8091666e-05   0.52188472  0.023988825            0    0.4978959    1.7476809    2.2695656    4.5937611 
19890000    1.1737784 -2.2217138e-05   0.54109866  0.029332085            0   0.51176658    1.7459954     2.287094     1.528749 
19895000    1.1527213 -6.0877319e-05   0.59844984  0.037014174            0   0.56143567     1.714673    2.3131228   0.23517699 
19900000    1.1936112 3.5912182e-05   0.55194308  0.017455358            0   0.53448772    1.7754967    2.3274398    3.5532422 
19905000    1.2142592 -5.8977339e-05    0.5069791 0.0070010186            0   0.49997808    1.8062106    2.3131897   0.30009651 
19910000     1.160622 -3.2145307e-05   0.56960926  0.013297291            0   0.55631197    1.7264252    2.2960344    1.1988079 
19915000    1.2373109 8.8101387e-05   0.46644651  0.020101648            0   0.44634486       1.8405    2.3069465    5.3141405 
19920000    1.1548437 0.00010407211   0.57651408  0.019187837            0   0.55732624      1.71783    2.2943441    5.8466721 
19925000    1.1806561 6.6368064e-05   0.51960638  0.020055436            0   0.49955094     1.756226    2.2758324    4.5411956 
19930000    1.2010046 4.9655503e-05   0.51072612   0.02112106            0   0.48960506    1.7864943    2.2972205    3.9921283 
19935000    1.1346275 0.00013508634   0.58585962  0.013725131            0   0.57213449    1.6877583     2.273618     6.884565 
19940000    1.1808575 -3.9345893e-06   0.50066682  0.034620547            0   0.46604627    1.7565256    2.2571924    2.1228917 
19945000    1.0939776 -2.4266618e-05   0.60934716  0.037721205            0   0.57162595    1.6272917    2.2366389    1.4083383 
19950000    1.1572195 -9.7036767e-05   0.53841612  0.035945794            0   0.50247033     1.721364    2.2597801   -1.0524082 
19955000    1.1873734 -4.2122927e-05   0.52673439  0.045671276            0   0.48106312    1.7662179    2.2929523   0.85515635 
19960000     1.210925 6.5513001e-05   0.47918055  0.028721455            0   0.45045909    1.8012509    2.2804315    4.5166086 
19965000    1.1067518 2.903887e-05   0.61664098  0.047958498            0   0.56868249    1.6462932    2.2629342    3.2541276 
19970000    1.0644933 -3.843689e-05   0.64686812  0.055587732            0   0.59128039    1.5834338    2.2303019   0.91832274 
19975000    1.1266942 0.00012568987   0.55475945  0.012636704            0   0.54212274    1.6759576    2.2307171    6.5209312 
19980000    1.1926503 0.00019912315   0.46827966  0.019710409            0   0.44856925    1.7740673     2.242347    9.0390839 
19985000     1.135815 -4.5431849e-05   0.55280443  0.023394262            0   0.52941017    1.6895248    2.2423292    0.6915888 
19990000    1.1795898 -6.4594171e-05   0.48159705  0.038084562            0   0.44351249    1.7546398    2.2362369  0.031422502 
19995000    1.1840323 4.2333601e-05   0.45578856    0.0216597            0   0.43412886     1.761248    2.2170366    3.6620235 
20000000    1.1388493 8.735117e-05   0.53730281 0.0029249133            0    0.5343779    1.6940383    2.2313411    5.2129277 
Loop time of 247.947 on 1 procs for 20000000 steps with 120 atoms

Performance: 69692.409 tau/day, 80662.511 timesteps/s
99.7% CPU use with 1 MPI tasks x no OpenMP threads

MPI task timing breakdown:
Section |  min time  |  avg time  |  max time  |%varavg| %total
---------------------------------------------------------------
Pair    | 12.814     | 12.814     | 12.814     |   0.0 |  5.17
Bond    | 41.448     | 41.448     | 41.448     |   0.0 | 16.72
Neigh   | 20.458     | 20.458     | 20.458     |   0.0 |  8.25
Comm    | 51.697     | 51.697     | 51.697     |   0.0 | 20.85
Output  | 0.65751    | 0.65751    | 0.65751    |   0.0 |  0.27
Modify  | 112.5      | 112.5      | 112.5      |   0.0 | 45.37
Other   |            | 8.368      |            |       |  3.37

Nlocal:        120.000 ave         120 max         120 min
Histogram: 1 0 0 0 0 0 0 0 0 0
Nghost:        0.00000 ave           0 max           0 min
Histogram: 1 0 0 0 0 0 0 0 0 0
Neighs:        44.0000 ave          44 max          44 min
Histogram: 1 0 0 0 0 0 0 0 0 0

Total # of neighbors = 44
Ave neighs/atom = 0.36666667
Ave special neighs/atom = 5.9000000
Neighbor list builds = 4169
Dangerous builds = 0
write_restart restart.equil
System init for write_restart ...
WARNING: Communication cutoff 1.4200000000000002 is shorter than a bond length based estimate of 1.8. This may lead to errors. (../comm.cpp:667)
#--------------End of Input file ------------------
Total wall time: 0:04:08
