LAMMPS (29 Oct 2020)
###################### polyelectrolyte complexation ######################
clear

#Initialization
#------------------------------------
units				lj
dimension			3
atom_style			full
boundary			p p p

#Atom Definition
#-------------------------------------
read_data			data.complexation
Reading data file ...
  orthogonal box = (-80.000000 -80.000000 -80.000000) to (80.000000 80.000000 80.000000)
  1 by 1 by 1 MPI processor grid
  reading atoms ...
  80 atoms
  scanning bonds ...
  1 = max bonds/atom
  reading bonds ...
  79 bonds
Finding 1-2 1-3 1-4 neighbors ...
  special bond factors lj:    0.0      0.0      0.0     
  special bond factors coul:  0.0      0.0      0.0     
     2 = max # of 1-2 neighbors
     2 = max # of 1-3 neighbors
     4 = max # of 1-4 neighbors
     6 = max # of special neighbors
  special bonds CPU = 0.000 seconds
  read_data CPU = 0.003 seconds

#Force definition
#----------------------------------------------
#Bond definition
bond_style			harmonic
bond_coeff			1 5000 1
#Pair definition
special_bonds	lj 0 1 1
Finding 1-2 1-3 1-4 neighbors ...
  special bond factors lj:    0.0      1.0      1.0     
  special bond factors coul:  0.0      0.0      0.0     
     2 = max # of 1-2 neighbors
     2 = max # of 1-3 neighbors
     4 = max # of 1-4 neighbors
     6 = max # of special neighbors
  special bonds CPU = 0.000 seconds
pair_style		 lj/cut 1.12
pair_modify 		 shift yes
pair_coeff	1 1 1 1 1.12

#Timestep etc
#--------------------------------------------
timestep		1e-05
run_style		verlet
velocity		all	create	1	10

#Fix
#---------------------------------------
group polymers type 1
80 atoms in group polymers
fix 1 all nve
fix 2 all langevin 1	1	10	10
fix 3 polymers recenter INIT INIT INIT units box

#Dump
#------------------------------------------------
compute  1 all gyration
variable  myRg2 equal c_1
variable  i equal step
fix  mythermofile all print 5000 "$i ${myRg2}" file radius_of_gyration.dat screen no

thermo_style		 custom step temp press pe evdwl ecoul ebond ke etotal enthalpy
thermo 	5000
dump	3 all custom 5000 dump.lammpstrj id mol type xu yu zu
run		20000000
Neighbor list info ...
  update every 1 steps, delay 10 steps, check yes
  max neighbors/atom: 2000, page size: 100000
  master list distance cutoff = 1.42
  ghost atom cutoff = 1.42
  binsize = 0.71, bins = 226 226 226
  1 neighbor lists, perpetual/occasional/extra = 1 0 0
  (1) pair lj/cut, perpetual
      attributes: half, newton on
      pair build: half/bin/newton
      stencil: half/bin/3d/newton
      bin: standard
WARNING: Communication cutoff 1.4200000000000002 is shorter than a bond length based estimate of 1.8. This may lead to errors. (../comm.cpp:667)
Per MPI rank memory allocation (min/avg/max) = 54.71 | 54.71 | 54.71 Mbytes
Step Temp Press PotEng E_vdwl E_coul E_bond KinEng TotEng Enthalpy 
       0            1 1.9287109e-05            0            0            0            0      1.48125      1.48125      2.46875 
    5000   0.80977458 -0.00031424092   0.29727966            0            0   0.29727966    1.1994786    1.4967582   -14.592377 
   10000   0.43051858 -0.00070021923   0.85525535            0            0   0.85525535   0.63770565     1.492961   -34.358264 
   15000   0.68269472 -0.00035993858   0.47141128            0            0   0.47141128    1.0112416    1.4826528   -16.946203 
   20000    0.6589321 -0.00029345758   0.52725181            0            0   0.52725181   0.97604317     1.503295   -13.521733 
   25000   0.50790417 -0.00054898246   0.74352759            0            0   0.74352759   0.75233306    1.4958606   -26.612041 
   30000   0.73306825 -0.00038898148   0.41097133            0            0   0.41097133    1.0858573    1.4968287   -18.419023 
   35000   0.80527385 -0.00019895798   0.32329033            0            0   0.32329033    1.1928119    1.5161022   -8.6705465 
   40000   0.72820981  -0.00024495   0.43189337            0            0   0.43189337    1.0786608    1.5105542   -11.030886 
   45000   0.75083255 -0.00024380656    0.4151909            0            0    0.4151909    1.1121707    1.5273616   -10.955534 
   50000   0.78199152 -0.00018190485   0.36085569            0            0   0.36085569    1.1583249    1.5191806   -7.7943478 
   55000   0.83829757 -0.00010890771   0.30036348            0            0   0.30036348    1.2417283    1.5420918   -4.0339831 
   60000    0.8767313 -7.8091929e-05   0.27170442            0            0   0.27170442    1.2986582    1.5703627   -2.4279441 
   65000   0.87699039 -9.4303715e-05   0.26747873            0            0   0.26747873     1.299042    1.5665207   -3.2618294 
   70000   0.82778125 -3.8863519e-05   0.32840467            0            0   0.32840467     1.226151    1.5545556  -0.43525652 
   75000   0.87514599 -9.3017688e-05   0.25842519            0            0   0.25842519      1.29631    1.5547352   -3.2077705 
   80000   0.80142038 -4.2901253e-05   0.29993238            0            0   0.29993238    1.1871039    1.4870363  -0.70950781 
   85000   0.80357978 -2.798273e-05   0.31331299            0            0   0.31331299    1.1903025    1.5036155  0.070899746 
   90000   0.78444854 9.3303726e-06   0.34859832            0            0   0.34859832    1.1619644    1.5105627    1.9882778 
   95000   0.82706468 -0.00012576887   0.26515567            0            0   0.26515567    1.2250896    1.4902452   -4.9491209 
  100000   0.83837903 -2.4943212e-05    0.2600573            0            0    0.2600573    1.2418489    1.5019062    0.2248138 
  105000   0.86431162 0.00014847655   0.24475564            0            0   0.24475564    1.2802616    1.5250172    9.1270167 
  110000   0.78303208 -0.00010767984   0.34284733            0            0   0.34284733    1.1598663    1.5027136   -4.0104943 
  115000   0.78851817 -9.8980685e-05   0.30379866            0            0   0.30379866    1.1679925    1.4717912   -3.5960199 
  120000   0.76906547 0.00014530385   0.31051321            0            0   0.31051321    1.1391782    1.4496914    8.8892483 
  125000   0.76662931 1.6978802e-05   0.32167993            0            0   0.32167993    1.1355697    1.4572496    2.3265643 
  130000   0.74493836 -0.00016236438    0.3940272            0            0    0.3940272    1.1034399    1.4974671   -6.8155889 
  135000   0.84219946 2.8825889e-05   0.26456019            0            0   0.26456019    1.2475079    1.5120681    2.9879537 
  140000   0.83509607 8.7810608e-05   0.29858453            0            0   0.29858453    1.2369861    1.5355706    6.0314737 
  145000   0.83522131 -7.9185581e-05   0.29941481            0            0   0.29941481    1.2371716    1.5365864   -2.5177154 
  150000    0.7891443 -0.00012371185     0.360861            0            0     0.360861      1.16892     1.529781   -4.8042659 
  155000   0.79025156 0.00017147903   0.37849792            0            0   0.37849792    1.1705601     1.549058    10.328785 
  160000   0.82476431 -5.0750468e-05   0.34680526            0            0   0.34680526    1.2216821    1.5684874   -1.0299366 
  165000   0.81240533 -0.00019762095   0.33746194            0            0   0.33746194    1.2033754    1.5408373   -8.5773551 
  170000     0.862272 0.00014554904   0.30167923            0            0   0.30167923    1.2772404    1.5789196    9.0310303 
  175000   0.86292837  3.65776e-05   0.30495318            0            0   0.30495318    1.2782126    1.5831658    3.4559389 
  180000   0.84840728 -0.00019758226   0.36572647            0            0   0.36572647    1.2567033    1.6224298   -8.4937821 
  185000   0.91378793 8.6794521e-05   0.23509239            0            0   0.23509239    1.3535484    1.5886408    6.0325203 
  190000   0.85680391 1.6638647e-05   0.28678513            0            0   0.28678513    1.2691408    1.5559259    2.4078246 
  195000   0.78123423 -0.00010445245   0.42163195            0            0   0.42163195    1.1572032    1.5788352   -3.7691304 
  200000   0.80220678 -2.6892526e-06   0.37623671            0            0   0.37623671    1.1882688    1.5645055    1.4268158 
  205000   0.82597284 8.9085191e-05   0.32791795            0            0   0.32791795    1.2234723    1.5513902     6.112552 
  210000   0.81021017 -8.0220127e-05   0.34578668            0            0   0.34578668    1.2001238    1.5459105     -2.56136 
  215000   0.79955089 6.192212e-05   0.35043573            0            0   0.35043573    1.1843347    1.5347705     4.705183 
  220000   0.85360499 7.8582844e-06   0.28448286            0            0   0.28448286    1.2644024    1.5488853    1.9512294 
  225000   0.81883748 -1.6246111e-06   0.31244711            0            0   0.31244711     1.212903    1.5253501      1.44217 
  230000   0.76684194 6.1381578e-05   0.37395337            0            0   0.37395337    1.1358846     1.509838    4.6525748 
  235000   0.77793741 2.4326872e-05   0.36359858            0            0   0.36359858    1.1523198    1.5159184    2.7614542 
  240000    0.8021735 -1.8467171e-05   0.32330939            0            0   0.32330939    1.1882195    1.5115289   0.56600972 
  245000   0.77549339 6.0217253e-07   0.35277734            0            0   0.35277734    1.1486996    1.5014769    1.5323082 
  250000   0.78182388 3.6176103e-05   0.36813214            0            0   0.36813214    1.1580766    1.5262088    3.3784252 
  255000   0.84666241 -5.642327e-05   0.29449323            0            0   0.29449323    1.2541187    1.5486119   -1.3402595 
  260000   0.83725762 7.3620624e-06   0.32733383            0            0   0.32733383    1.2401879    1.5675217    1.9444593 
  265000   0.81150241 3.5725156e-05   0.36727838            0            0   0.36727838    1.2020379    1.5693163    3.3984443 
  270000   0.80229984 -1.0719121e-05   0.38199088            0            0   0.38199088    1.1884066    1.5703975    1.0215785 
  275000   0.83540746 1.6899004e-05   0.34252501            0            0   0.34252501    1.2374473    1.5799723    2.4452013 
  280000   0.84325682 1.2115831e-05   0.33423755            0            0   0.33423755    1.2490742    1.5833117    2.2036423 
  285000   0.84456741 -3.9412045e-05   0.32704455            0            0   0.32704455    1.2510155      1.57806  -0.43983667 
  290000   0.79508243 7.5407259e-05   0.40220134            0            0   0.40220134    1.1777158    1.5799172    5.4407688 
  295000   0.83392855 -3.7100306e-05   0.32980788            0            0   0.32980788    1.2352567    1.5650645  -0.33447111 
  300000   0.81200973 -2.9634961e-05   0.36710112            0            0   0.36710112    1.2027894    1.5698905  0.052580546 
  305000   0.81601044 7.6075399e-05   0.35617309            0            0   0.35617309    1.2087155    1.5648886     5.459949 
  310000     0.773609 -1.3458042e-05   0.40682789            0            0   0.40682789    1.1459083    1.5527362   0.86368447 
  315000   0.80226685 3.1423908e-07   0.35879383            0            0   0.35879383    1.1883578    1.5471516    1.5632406 
  320000   0.77879949 -7.0941432e-06   0.39327802            0            0   0.39327802    1.1535967    1.5468748    1.1836546 
  325000   0.76008593 -1.4279624e-05   0.38614338            0            0   0.38614338    1.1258773    1.5120207   0.78090393 
  330000   0.79844721 4.9649055e-05   0.35181052            0            0   0.35181052    1.1826999    1.5345105    4.0765421 
  335000   0.78389686 -1.612921e-05   0.37859368            0            0   0.37859368    1.1611472    1.5397409   0.71392535 
  340000   0.77499662 3.730589e-05   0.40558906            0            0   0.40558906    1.1479637    1.5535528    3.4636144 
  345000    0.8282082 -4.2600278e-05   0.31996298            0            0   0.31996298    1.2267834    1.5467464  -0.63438787 
  350000   0.77840425 6.0542377e-05   0.38773379            0            0   0.38773379    1.1530113    1.5407451    4.6405148 
  355000   0.75748165 -2.0863162e-05   0.41448444            0            0   0.41448444    1.1220197    1.5365041   0.46831025 
  360000   0.78925375 -7.3568648e-05   0.36880977  1.10142e-05            0   0.36879875    1.1690821    1.5378919   -2.2288229 
  365000   0.80325961 -1.7694467e-05   0.36663431 0.0022254863            0   0.36440883    1.1898283    1.5564626   0.65050593 
  370000   0.76882117 -4.3687668e-05   0.45107997 0.0078122576            0   0.44326772    1.1388164    1.5898963  -0.64691225 
  375000   0.79313916 5.9430836e-05   0.43182582 0.0026163658            0   0.42920945    1.1748374    1.6066632     4.649522 
  380000   0.80224702 -0.0001342458   0.41871425 4.4586609e-05            0   0.41866966    1.1883284    1.6070426   -5.2663425 
  385000   0.76131944 8.8551046e-05   0.47708286            0            0   0.47708286    1.1277044    1.6047873    6.1386009 
  390000   0.71574049 7.0600806e-06   0.56158699            0            0   0.56158699    1.0601906    1.6217776    1.9832537 
  395000   0.81499391 -3.4834023e-06   0.40211974            0            0   0.40211974    1.2072097    1.6093295    1.4309793 
  400000    0.7985842 7.3512567e-05    0.3716236            0            0    0.3716236    1.1829028    1.5545264    5.3183699 
  405000   0.77548128 -0.00020522761   0.41252684            0            0   0.41252684    1.1486816    1.5612085   -8.9464452 
  410000   0.77886455 0.00013937217    0.4219755            0            0    0.4219755    1.1536931    1.5756686    8.7115235 
  415000   0.76363867 -0.00015433941   0.43735194            0            0   0.43735194    1.1311398    1.5684917   -6.3336861 
  420000   0.84008785 0.00011242668   0.34934517            0            0   0.34934517    1.2443801    1.5937253    7.3499715 
  425000   0.82247064 -3.6481849e-05   0.35564654            0            0   0.35564654    1.2182846    1.5739312  -0.29393947 
  430000    0.8183576 1.1609257e-06   0.38698868 0.0010082029            0   0.38598048    1.2121922    1.5991809    1.6586203 
  435000   0.79028414 0.00019985529   0.43199807  0.001319462            0    0.4306786    1.1706084    1.6026064    11.835197 
  440000   0.80008946 -0.00014335874   0.42091769 0.0012716728            0   0.41964602    1.1851325    1.6060502   -5.7339175 
  445000   0.82109337 8.4196007e-05   0.43860261 0.00037248516            0   0.43823013    1.2162446    1.6548472    5.9656827 
  450000   0.80927108 -8.0319305e-07   0.44200036            0            0   0.44200036    1.1987328    1.6407331    1.5996097 
  455000    0.8216868 -7.4232832e-05    0.4068658            0            0    0.4068658    1.2171236    1.6239894   -2.1767316 
  460000   0.82941019 3.967577e-05   0.40708754            0            0   0.40708754    1.2285638    1.6356514    3.6670508 
  465000   0.76535685 2.8399104e-06   0.51643998            0            0   0.51643998    1.1336848    1.6501248    1.7955282 
  470000   0.78948345 -3.0458231e-05   0.46922823 1.047866e-07            0   0.46922813    1.1694224    1.6386506   0.07918918 
  475000   0.78379709 5.6779423e-05   0.47501692 0.00059375098            0   0.47442317    1.1609994    1.6360164    4.5431228 
  480000   0.81658855 -2.8730345e-05   0.43087203 0.00085726071            0   0.43001477    1.2095718    1.6404438   0.16945015 
  485000   0.83959164 5.0168407e-05   0.38151799 0.0014803972            0   0.38003759    1.2436451    1.6251631    4.1937855 
  490000   0.84229452 -7.0705597e-05   0.38129734 0.00012627933            0   0.38117106    1.2476488    1.6289461   -1.9911805 
  495000   0.89311932 0.00011273724   0.31497453            0            0   0.31497453     1.322933    1.6379075    7.4100544 
  500000   0.80751453 -6.6626304e-05   0.42180382            0            0   0.42180382    1.1961309    1.6179347    -1.793332 
  505000    0.8272398 0.00013750116   0.40212235            0            0   0.40212235     1.225349    1.6274713    8.6675309 
  510000     0.876861 2.8521472e-05   0.33730075            0            0   0.33730075    1.2988503    1.6361511    3.0964504 
  515000   0.88767601 -3.0734456e-05   0.36293253            0            0   0.36293253    1.3148701    1.6778026   0.10419846 
  520000   0.87428069 7.1230365e-05   0.37976892            0            0   0.37976892    1.2950283    1.6747972    5.3217919 
  525000   0.81526233 -0.00021981217   0.48685395            0            0   0.48685395    1.2076073    1.6944613   -9.5599219 
  530000   0.85229258 4.2262081e-05   0.41302721            0            0   0.41302721    1.2624584    1.6754856    3.8393041 
  535000   0.84146633 -0.00010916361    0.4198834 7.1246517e-05            0   0.41981215     1.246422    1.6663054   -3.9228715 
  540000     0.830813 3.9681965e-05   0.43680908 0.00021726034            0   0.43659182    1.2306418    1.6674508    3.6991675 
  545000   0.81962312 -1.1041254e-06    0.4425022 0.0008348249            0   0.44166738    1.2140667     1.656569    1.6000377 
  550000   0.79450136 -1.4369144e-05    0.4944139 0.00044729611            0    0.4939666    1.1768551     1.671269   0.93556884 
  555000   0.80481298 7.9602449e-06   0.48734183 0.00037424784            0   0.48696758    1.1921292    1.6794711    2.0870356 
  560000   0.79428796 1.8181999e-05   0.50641756 0.0027340776            0   0.50368348     1.176539    1.6829566    2.6138749 
  565000   0.88822398 -3.9450449e-05   0.37609811 0.0091949702            0   0.36690314    1.3156818    1.6917799  -0.32808312 
  570000    0.9076085 -2.9881798e-05   0.36906481 0.0071066456            0   0.36195817    1.3443951    1.7134599   0.18351184 
  575000   0.93296794 -9.3971181e-06   0.35232427 0.0014411408            0   0.35088313    1.3819588     1.734283    1.2531506 
  580000   0.90395203 4.5778954e-05   0.37143056            0            0   0.37143056     1.338979    1.7104095     4.054292 
  585000   0.87337361 -4.0571174e-05   0.41814485            0            0   0.41814485    1.2936847    1.7118295  -0.36541459 
  590000   0.89073309 3.4413501e-05   0.39205199            0            0   0.39205199    1.3193984    1.7114504    3.4734216 
  595000   0.90668868 0.00011890626    0.3827527            0            0    0.3827527    1.3430326    1.7257853     7.813786 
  600000   0.87464542 -0.00013651709   0.45286797            0            0   0.45286797    1.2955685    1.7484365   -5.2412382 
  605000   0.84649671 0.00015020224   0.49027332 0.0014732618            0   0.48880006    1.2538732    1.7441466    9.4345014 
  610000   0.92547516 -3.8265953e-05    0.4068733  0.009077615            0   0.39779569    1.3708601    1.7777334  -0.18148342 
  615000   0.87045215 -1.5276568e-05   0.45260518  0.011423304            0   0.44118187    1.2893572    1.7419624   0.95980217 
  620000    0.8773687 5.5920856e-05   0.44774576 0.0030260135            0   0.44471975    1.2996024    1.7473482     4.610496 
  625000    0.9246051 -6.8562837e-05    0.3793352   0.00583848            0   0.37349672    1.3695713    1.7489065   -1.7615108 
  630000   0.89225041 -0.00014747531   0.44812718 0.0092521111            0   0.43887506    1.3216459    1.7697731   -5.7809626 
  635000   0.85492718 7.4688362e-05   0.50452352  0.015994226            0    0.4885293    1.2663609    1.7708844    5.5949285 
  640000   0.91568779 -7.2910431e-05   0.39239929 0.0096887338            0   0.38271056    1.3563625    1.7487618   -1.9842523 
  645000    0.9631281 -8.160951e-05   0.34861872 0.0028834941            0   0.34573522    1.4266335    1.7752522   -2.4031547 
  650000   0.91048073 6.6440876e-06   0.45143403 0.0090736976            0   0.44236033    1.3486496    1.8000836    2.1402609 
  655000   0.87286267 -0.00010043292   0.51006684 0.0044644678            0   0.50560237    1.2929278    1.8029947    -3.339171 
  660000   0.88148104 4.4261907e-05   0.48645559  0.019170962            0   0.46728463    1.3056938    1.7921494     4.058359 
  665000   0.98326019 -6.7169618e-05   0.34301708  0.021221203            0   0.32179588    1.4564542    1.7994712   -1.6396132 
  670000   0.96385482 -2.746496e-05   0.35531163    0.0220567            0   0.33325493      1.42771    1.7830216   0.37681563 
  675000   0.90398048 0.00011931816    0.4062679  0.024459779            0   0.38180812    1.3390211     1.745289    7.8543786 
  680000   0.88155635 -6.897426e-06     0.468147 0.0056576751            0   0.46248933    1.3058053    1.7739524    1.4208041 
  685000   0.87609961 2.9778433e-05   0.51154682 0.0028660222            0    0.5086808    1.2977225    1.8092694    3.3339251 
  690000   0.88948381 -0.00010414424   0.51426332 0.0025366381            0   0.51172669    1.3175479    1.8318112   -3.5003737 
  695000   0.92923776 4.0267612e-05   0.46571965  0.013328527            0   0.45239113    1.3764334    1.8421531    3.9038548 
  700000   0.98856289 5.674544e-05    0.3932084  0.013054217            0   0.38015418    1.4643088    1.8575172    4.7628837 
  705000   0.95165382 -6.6947422e-05   0.39450716 0.00097958003            0   0.39352758    1.4096372    1.8041444   -1.6235636 
  710000   0.92871212 7.9998101e-05   0.46029117            0            0   0.46029117    1.3756548     1.835946    5.9318488 
  715000   0.92628723 -0.00019061553   0.49468624            0            0   0.49468624     1.372063    1.8667492   -7.8927659 
  720000    1.0218268 -3.7341548e-05   0.35292332            0            0   0.35292332     1.513581    1.8665043 -0.045382977 
  725000   0.96220811 1.5341206e-05   0.43529685            0            0   0.43529685    1.4252708    1.8605676    2.6460374 
  730000   0.94766937 -5.9474322e-05   0.45963018            0            0   0.45963018    1.4037353    1.8633654   -1.1817198 
  735000   0.92946002 -1.4647052e-06   0.48025847            0            0   0.48025847    1.3767627    1.8570211    1.7820282 
  740000   0.91838828 4.0701447e-05   0.49380678 0.0004712931            0   0.49333548    1.3603626    1.8541694    3.9380835 
  745000    0.9364591 4.1173752e-05    0.4791028 0.0038768566            0   0.47522594      1.38713    1.8662328    3.9743289 
  750000   0.97779133 4.9829306e-05   0.42767783 0.0048531469            0   0.42282468    1.4483534    1.8760312    4.4272917 
  755000   0.99521245 -2.4094139e-05   0.41473652  0.012154463            0   0.40258206    1.4741584     1.888895   0.65527503 
  760000   0.91363455 3.814712e-05   0.51386616  0.016905577            0   0.49696059    1.3533212    1.8671873    3.8203199 
  765000   0.95632985 -1.5879443e-05   0.44389674 0.0016778487            0   0.44221889    1.4165636    1.8604603    1.0474329 
  770000   0.95074831 2.0463356e-05   0.43052607            0            0   0.43052607    1.4082959     1.838822    2.8865458 
  775000   0.97950117 0.00010759518   0.36360431  2.28964e-05            0   0.36358141    1.4508861    1.8144904    7.3233639 
  780000   0.91268256 -2.8522232e-05   0.46641822  0.010114549            0   0.45630368     1.351911    1.8183293   0.35799099 
  785000   0.89456815 -7.7179105e-05   0.47312429  0.023482537            0   0.44964175    1.3250791    1.7982034   -2.1533668 
  790000    0.9223476 -7.8826594e-05   0.43714219  0.010936896            0    0.4262053    1.3662274    1.8033696    -2.232552 
  795000   0.88252135 9.9467747e-05   0.50944104  0.012516996            0   0.49692405    1.3072347    1.8166758    6.9094244 
  800000   0.89003792 -0.00015316607   0.49673605  0.019915247            0    0.4768208    1.3183687    1.8151047   -6.0269978 
  805000    0.9192589 0.00016658698   0.41662224  0.010841868            0   0.40578037    1.3616522    1.7782745    10.307528 
  810000   0.83824404 -3.7789106e-05   0.53152291  0.017799378            0   0.51372353     1.241649    1.7731719  -0.16163032 
  815000   0.93587524 -2.2830753e-05   0.40580187 0.0073007344            0   0.39850114    1.3862652    1.7920671   0.62313253 
  820000   0.89873684 2.0767167e-05    0.4569313 0.0017738272            0   0.45515747    1.3312539    1.7881852    2.8514642 
  825000   0.85120755 5.4908108e-06   0.52266559   0.01063059            0     0.512035    1.2608512    1.7835168    2.0646463 
  830000   0.89739863 -1.3535949e-05   0.46889311 0.0051484853            0   0.46374462    1.3292717    1.7981648    1.1051242 
  835000   0.93511261 2.580309e-05   0.41697415 0.00075282712            0   0.41622132    1.3851356    1.8021097    3.1232279 
  840000   0.95287297 5.5534002e-05   0.38801456 3.7142501e-05            0   0.38797741    1.4114431    1.7994576    4.6427985 
  845000   0.87268213 0.00013163779   0.47326004            0            0   0.47326004    1.2926604    1.7659204     8.505775 
  850000   0.83926449 0.00010220696   0.52071968            0            0   0.52071968    1.2431605    1.7638802    6.9968767 
  855000   0.88971094 1.7139214e-05   0.47102656            0            0   0.47102656    1.3178843    1.7889109    2.6664387 
  860000   0.85358261 0.00010273011   0.52813653            0            0   0.52813653    1.2643692    1.7925058    7.0522873 
  865000   0.85006481 -7.9849905e-05   0.53711472            0            0   0.53711472    1.2591585    1.7962732   -2.2920419 
  870000    0.8880183 -4.3153597e-05   0.48165327 0.0016180605            0   0.48003521    1.3153771    1.7970304  -0.41243378 
  875000   0.93749954 -2.2332345e-05   0.44315851  0.016065084            0   0.42709342    1.3886712    1.8318297   0.68841363 
  880000   0.97099333 -6.2254103e-05   0.41015142 0.0097324559            0   0.40041896    1.4382839    1.8484353   -1.3389748 
  885000   0.92382704 3.6380659e-05   0.46874862 4.810381e-05            0   0.46870052    1.3684188    1.8371674    3.6998572 
  890000   0.94286324 -0.00011969042   0.42898283            0            0   0.42898283    1.3966162     1.825599   -4.3025506 
  895000   0.89188214 9.2238897e-05   0.48523932 0.00057482027            0    0.4846645    1.3211004    1.8063397    6.5289713 
  900000   0.88775224 -0.00014967662    0.5042277  0.020095346            0   0.48413235     1.314983    1.8192107   -5.8442321 
  905000   0.93492298 5.2945436e-05    0.4129724  0.019537004            0   0.39343539    1.3848547    1.7978271    4.5086334 
  910000   0.89264705 2.4863463e-06   0.49784972 0.0040173091            0   0.49383241    1.3222334    1.8200832    1.9473841 
  915000   0.87232319 -0.00015420922   0.52490878            0            0   0.52490878    1.2921287    1.8170375   -6.0784746 
  920000   0.91339387 -1.6001678e-05     0.475476 7.4499638e-05            0    0.4754015    1.3529647    1.8284407    1.0091547 
  925000   0.85716923 -2.3202311e-05   0.52375419 0.0068318351            0   0.51692235    1.2696819    1.7934361   0.60547781 
  930000   0.91129329 9.6673764e-06   0.43988484   0.01649601            0   0.42338883    1.3498532     1.789738    2.2847077 
  935000   0.86243603 0.00017037164   0.48417516 0.0027981113            0   0.48137705    1.2774834    1.7616585    10.484686 
  940000   0.79012775 8.3695343e-05   0.62232129 0.00015835261            0   0.62216294    1.1703767     1.792698    6.0778996 
  945000   0.94575205 9.5705057e-05   0.36324452 0.00014548872            0   0.36309903    1.4008952    1.7641397    6.6642387 
  950000   0.81017701 -5.0813834e-05   0.55676878 0.0074798123            0   0.54928897    1.2000747    1.7568435  -0.84482482 
  955000   0.86931808 -1.6781368e-05   0.50188163  0.022572277            0   0.47930935    1.2876774     1.789559   0.93035297 
  960000   0.86053277 -0.0001073986   0.50480009  0.012630192            0   0.49216989    1.2746642    1.7794643   -3.7193439 
  965000   0.89633189 -8.635485e-05   0.46753783 0.00080868509            0   0.46672914    1.3276916    1.7952294   -2.6261389 
  970000   0.96284898 5.8595149e-05   0.37648541 0.00024205198            0   0.37624336    1.4262201    1.8027055    4.8027771 
  975000   0.88325031 0.00012379593   0.49129124  0.010272328            0   0.48101892    1.3083145    1.7996058    8.1379572 
  980000   0.92487238 8.8958096e-05   0.42823246  0.010039873            0   0.41819259    1.3699672    1.7981997    6.3528542 
  985000   0.92783564 2.0218149e-06    0.4265094 0.0014525127            0   0.42505689    1.3743565    1.8008659    1.9043829 
  990000   0.85753583 -6.3179181e-05   0.54540752 0.0029453895            0   0.54246213     1.270225    1.8156325   -1.4191416 
  995000    0.9496515 -6.9212259e-05   0.41418104 0.0061659896            0   0.40801505    1.4066713    1.8208523   -1.7228153 
 1000000   0.95456341 1.7856295e-05    0.4197961 0.0047760515            0   0.41502005     1.413947    1.8337432    2.7479854 
 1005000   0.88129211 5.3153335e-05   0.50669864 0.0063472821            0   0.50035136    1.3054139    1.8121126    4.5335633 
 1010000   0.93924623 0.00011729768   0.40329136   0.00856641            0   0.39472495    1.3912585    1.7945498    7.8001913 
 1015000   0.90058803 3.9939334e-06   0.47770073  0.022942394            0   0.45475834     1.333996    1.8116968    2.0161861 
 1020000   0.85083784 -1.9737752e-05   0.57104864  0.026511143            0    0.5445375    1.2603036    1.8313522   0.82077931 
 1025000   0.93566943 -6.9818856e-05   0.44983166  0.011222835            0   0.43860883    1.3859603     1.835792   -1.7389334 
 1030000   0.87953938 0.00011551654   0.51399022 0.0027369851            0   0.51125324    1.3028177    1.8168079    7.7312546 
 1035000   0.94036551  4.55566e-05   0.44585265 0.0032953139            0   0.44255733    1.3929164    1.8387691     4.171267 
 1040000   0.88055266 -1.1903515e-05    0.5349812 0.0066564783            0   0.52832472    1.3043186    1.8392998    1.2298399 
 1045000   0.92327951  0.000139748      0.48092 0.0031846198            0   0.47773538    1.3676078    1.8485278    9.0036252 
 1050000   0.90536206 -1.9542999e-05    0.5046832 0.0031664535            0   0.50151675    1.3410675    1.8457507   0.84514919 
 1055000   0.90327003 -6.8777013e-05   0.49758483 0.0053727827            0   0.49221205    1.3379687    1.8355536   -1.6858295 
 1060000   0.90627223 3.2105624e-05   0.47138362 0.0057152367            0   0.46566838    1.3424157    1.8137994    3.4576073 
 1065000   0.91775052 0.00011485524   0.43788084  0.010550556            0   0.42733028     1.359418    1.7972988    7.6778871 
 1070000   0.94554893 2.2666667e-05   0.36958761  0.010332827            0   0.35925478    1.4005944     1.770182    2.9307153 
 1075000    0.9141081 -0.00010557712   0.43090554 0.0096942568            0   0.42121128    1.3540226    1.7849282   -3.6206202 
 1080000   0.86258745 -3.9743189e-05   0.50101829 0.0084443945            0   0.49257389    1.2777077     1.778726  -0.25612533 
 1085000   0.88411647 -2.4320358e-05   0.46463264 0.0013856478            0   0.46324699    1.3095975    1.7742302   0.52902783 
 1090000   0.82759791  1.20294e-05   0.54741193 0.00015686337            0   0.54725506    1.2258794    1.7732913    2.3891966 
 1095000    0.8955612 -7.0262176e-05   0.43875772 0.00076249613            0   0.43799522      1.32655    1.7653077   -1.8321157 
 1100000   0.85881689 -4.1660204e-05   0.50337234 0.0020614901            0   0.50131085    1.2721225    1.7754949   -0.3575076 
 1105000   0.96718259 0.00017065241     0.383025 0.0025011682            0   0.38052384    1.4326392    1.8156642    10.553068 
 1110000   0.85456502 0.00010652135   0.54878697 0.0041731064            0   0.54461387    1.2658244    1.8146114    7.2685044 
 1115000   0.88335165 -4.626679e-05   0.49795615 0.0086502104            0   0.48930594    1.3084646    1.8064208  -0.56243888 
 1120000   0.91780878 -4.2619786e-05   0.45021878  0.015651883            0   0.43456689    1.3595043     1.809723  -0.37241003 
 1125000   0.96098309 4.3740555e-05   0.39486072 0.0072364083            0   0.38762431    1.4234562    1.8183169    4.0578333 
 1130000     0.850294 -6.5431235e-05   0.51735057  0.002157819            0   0.51519275     1.259498    1.7768486   -1.5732307 
 1135000   0.90219623 -6.3245615e-05   0.46048318 0.0064757956            0   0.45400738    1.3363782    1.7968613   -1.4413142 
 1140000   0.90576995 7.9721588e-05   0.45587798  0.021574722            0   0.43430326    1.3416717    1.7975497     5.879295 
 1145000     0.861195 -2.8358737e-05   0.51472646 0.0082647423            0   0.50646172    1.2756451    1.7903716    0.3384042 
 1150000   0.89294158 0.00013099777   0.45685855 0.00054006002            0   0.45631849    1.3226697    1.7795283     8.486614 
 1155000   0.86865818 9.0543521e-05   0.48838083 6.6433925e-06            0   0.48837418    1.2866999    1.7750808     6.410909 
 1160000   0.89081931 5.4665366e-06   0.45470033 0.0033016417            0   0.45139869    1.3195261    1.7742264    2.0541131 
 1165000   0.80411381 -5.8058299e-05   0.57752313 0.0060933216            0   0.57142981    1.1910936    1.7686167   -1.2039682 
 1170000   0.91911927 -4.5510145e-05   0.42293425  0.018199988            0   0.40473426    1.3614454    1.7843797  -0.54573978 
 1175000   0.79452708 4.2350327e-05   0.59213089  0.015256189            0    0.5768747    1.1768932    1.7690241    3.9373609 
 1180000   0.86049217 -4.3842208e-05   0.46658819  0.012249385            0    0.4543388     1.274604    1.7411922  -0.50352885 
 1185000   0.84895317 1.252178e-05    0.4804136  0.014841927            0   0.46557167    1.2575119    1.7379255    2.3790406 
 1190000   0.78330754 3.3470435e-05   0.56513369 0.0038743806            0   0.56125931    1.1602743     1.725408    3.4390942 
 1195000   0.76510781 9.0065732e-05   0.59976714   0.01134015            0   0.58842699    1.1333159    1.7330831    6.3444486 
 1200000   0.83916745 -0.00013073313   0.48660624  0.012788188            0   0.47381806    1.2430168     1.729623   -4.9639132 
 1205000   0.81794874 -8.1976904e-05   0.53524503  0.011060329            0    0.5241847    1.2115866    1.7468316   -2.4503859 
 1210000   0.87807388 -6.5808981e-05   0.45901533 0.0053903046            0   0.45362503    1.3006469    1.7596623   -1.6097576 
 1215000   0.80474609 -5.8081163e-05   0.57363239 0.0038854794            0   0.56974691    1.1920301    1.7656625    -1.208093 
 1220000    0.8704021 1.7116727e-05   0.46738164 0.0088831992            0   0.45849844    1.2892831    1.7566648    2.6330412 
 1225000   0.80786434 -3.4955928e-05   0.56099714  0.012107506            0   0.54888964    1.1966491    1.7576462 -0.032097299 
 1230000   0.84358577 1.5820688e-05   0.53384458  0.017122126            0   0.51672245    1.2495614     1.783406    2.5934252 
 1235000   0.86364775 -4.21595e-05   0.49932005  0.017192328            0   0.48212773    1.2792782    1.7785983  -0.37996812 
 1240000   0.82460582 6.5880729e-05   0.54096807  0.011498016            0   0.52947006    1.2214474    1.7624154    5.1355088 
 1245000   0.83649671 1.7394774e-05   0.51612633 0.0079569462            0   0.50816938    1.2390608    1.7551871    2.6457995 
 1250000    0.8809558 -5.3355515e-05   0.46065762 0.0046660403            0   0.45599158    1.3049158    1.7655734    -0.966229 
 1255000   0.79959813 -7.7116645e-06   0.58500018  0.007386937            0   0.57761324    1.1844047    1.7694049    1.3745677 
 1260000   0.82643445 -2.2573714e-05   0.54413434  0.017410102            0   0.52672424     1.224156    1.7682904   0.61251621 
 1265000   0.83006788 2.0054528e-05   0.54731789  0.051507926            0   0.49580996     1.229538    1.7768559    2.8036477 
 1270000   0.83636366 -9.9397741e-05   0.55445234  0.014392066            0   0.54006027    1.2388637     1.793316   -3.2958483 
 1275000   0.86390491 -8.9038946e-05   0.52653221 0.0070991746            0   0.51943303    1.2796592    1.8061914   -2.7526027 
 1280000   0.90595995 -8.1099269e-05   0.46108311  0.014988771            0   0.44609434    1.3419532    1.8030363   -2.3492463 
 1285000   0.83816429 -7.3812423e-05   0.53635593 0.0095991988            0   0.52675673    1.2415308    1.7778868   -2.0013093 
 1290000   0.88178612 -0.00013378174   0.46271934  0.015219956            0   0.44749938    1.3061457     1.768865     -5.08076 
 1295000   0.86427488 4.1615722e-05   0.50962077 0.0084000272            0   0.50122074    1.2802072    1.7898279    3.9205529 
 1300000    0.8545701 4.3697346e-05   0.52752745 0.00022385793            0   0.52730359     1.265832    1.7933594    4.0306635 
 1305000   0.83113613 1.7910346e-06   0.56370318 0.0056147654            0   0.55808841    1.2311204    1.7948236    1.8865245 
 1310000     0.905318 8.1795064e-05   0.47344108   0.01306968            0    0.4603714    1.3410023    1.8144434    6.0023506 
 1315000   0.87463746 6.1980993e-05   0.51112904    0.0104399            0   0.50068914    1.2955567    1.8066858    4.9801126 
 1320000   0.92961711 7.5832445e-05   0.43628095  0.035664042            0   0.40061691    1.3769953    1.8132763    5.6958975 
 1325000   0.89876293 6.7165388e-05   0.51068046  0.037103397            0   0.47357706    1.3312926    1.8419731    5.2808409 
 1330000    0.8423248 -0.00011181446   0.55778526   0.03420101            0   0.52358425    1.2476936    1.8054789   -3.9194213 
 1335000   0.97450406 6.7745097e-05   0.34189257  0.018708672            0    0.3231839    1.4434841    1.7853767    5.2539257 
 1340000   0.81455722 0.00021483286   0.57707862  0.011408661            0   0.56566996    1.2065629    1.7836415    12.783084 
 1345000   0.89068791 -3.9448769e-05   0.47519272 0.0053983174            0    0.4697944    1.3193315    1.7945242   -0.2252528 
 1350000   0.92300823 -7.1676826e-05   0.44704352 0.0046673697            0   0.44237615    1.3672059    1.8142495    -1.855604 
 1355000   0.88753159 4.7927712e-05   0.51519747 0.0028554459            0   0.51234203    1.3146562    1.8298536    4.2837525 
 1360000   0.92433762 2.3542262e-06   0.47968257 0.0069167696            0    0.4727658    1.3691751    1.8488577    1.9693941 
 1365000   0.96295464 -8.028188e-05   0.42475434  0.014907447            0    0.4098469    1.4263766    1.8511309   -2.2593013 
 1370000    0.9360748 -4.4605014e-05   0.47410983  0.014775287            0   0.45933454    1.3865608    1.8606706  -0.42310609 
 1375000   0.92301441 -4.8063642e-05   0.47005521  0.036002581            0   0.43405262    1.3672151    1.8372703  -0.62358815 
 1380000   0.90006021 4.788701e-06   0.52543412  0.028285029            0   0.49714909    1.3332142    1.8586483    2.1038298 
 1385000   0.92013631 -8.5700015e-05   0.50808802 0.0095937559            0   0.49849426    1.3629519    1.8710399   -2.5168009 
 1390000   0.95427394 -6.5645874e-05    0.4849993 0.0087694187            0   0.47622988    1.4135183    1.8985176   -1.4625512 
 1395000   0.93705812 7.6158782e-05   0.49208885  0.041711766            0   0.45037709    1.3880173    1.8801062    5.7794358 
 1400000   0.92019795 3.1892285e-05   0.48101347  0.027335318            0   0.45367815    1.3630432    1.8440567    3.4769417 
 1405000   0.88966342 -0.00017777231   0.52671515  0.018462635            0   0.50825251    1.3178139    1.8445291   -7.2574134 
 1410000   0.91464331 -0.00014847641   0.52052341  0.014412175            0   0.50611124    1.3548154    1.8753388   -5.7266534 
 1415000   0.95192307 0.00015464908   0.45756463 0.0038466964            0   0.45371794     1.410036    1.8676007    9.7856336 
 1420000   0.98746284 8.785335e-05   0.42048496 0.0006374798            0   0.41984748    1.4626793    1.8831643    6.3812558 
 1425000   0.92722109 1.1433462e-05   0.53271515 0.00043824045            0   0.53227691    1.3734462    1.9061614    2.4915546 
 1430000   0.96169296 -0.00011278652   0.48812878  0.001383528            0   0.48674525    1.4245077    1.9126365   -3.8620332 
 1435000   0.96237801 0.00012055494   0.48442483  0.000775873            0   0.48364895    1.4255224    1.9099473    8.0823602 
 1440000    0.9062187 7.0380097e-05   0.56979829 0.0031507192            0   0.56664757    1.3423365    1.9121347    5.5155957 
 1445000   0.91767795 6.4635684e-06   0.56175411 0.0057411039            0     0.556013    1.3593105    1.9210646    2.2519993 
 1450000   0.89887845 1.4475026e-05   0.58491981 0.0069920197            0   0.57792779    1.3314637    1.9163835    2.6575048 
 1455000   0.88550658 -0.000111025   0.59159433 0.0032811921            0   0.58831314    1.3116566     1.903251   -3.7812288 
 1460000    1.0014859 9.8166085e-05   0.40607256 0.0020560648            0    0.4040165    1.4834509    1.8895235     6.915627 
 1465000   0.97642718 0.00022147383   0.45932441 0.0010519145            0    0.4582725    1.4463328    1.9056572    13.245117 
 1470000   0.91720267 -5.0807855e-05   0.52242417 0.0018200324            0   0.52060414    1.3586065    1.8810306  -0.72033157 
 1475000   0.95433492 -3.947238e-06   0.49139122 0.0050112585            0   0.48637996    1.4136086    1.9049998    1.7029012 
 1480000   0.89920029 2.3099081e-05   0.57164572   0.01375013            0   0.55789559    1.3319404    1.9035861    3.0862591 
 1485000   0.95193332 -9.5002296e-05   0.47419203   0.01029025            0   0.46390178    1.4100512    1.8842433   -2.9798743 
 1490000   0.93947757 -0.0002279386   0.48951951 0.0021087801            0   0.48741073    1.3916011    1.8811207   -9.7893356 
 1495000   0.94780773 -0.00017856058   0.48245465 0.0067493397            0   0.47570531    1.4039402    1.8863949   -7.2559067 
 1500000     1.007649 1.3539677e-05   0.39654308  0.029625916            0   0.36691716      1.49258    1.8891231    2.5823546 
 1505000   0.98585463 0.00017707465   0.42344962  0.019160406            0   0.40428922    1.4602972    1.8837468    10.949969 
 1510000   0.91199907 0.00012443537   0.53652275 0.0045846236            0   0.53193813    1.3508986    1.8874214    8.2585121 
 1515000   0.95800205 0.00011885939   0.48671437 0.0044779367            0   0.48223644    1.4190405    1.9057549    7.9913558 
 1520000   0.98879261 0.00013997827   0.47337183  0.010668711            0   0.46270312    1.4646491    1.9380209    9.1049081 
 1525000    0.9469058 6.9585015e-05   0.52525593  0.018066653            0   0.50718928    1.4026042    1.9278602    5.4906129 
 1530000   0.94200246 -3.0270998e-07    0.5232756 0.0090989523            0   0.51417665    1.3953411    1.9186167     1.903118 
 1535000   0.98052016 -5.9694076e-05   0.46573977  0.011240321            0   0.45449945    1.4523955    1.9181353   -1.1382014 
 1540000    1.0027716 0.00011143861   0.42018417  0.030385453            0   0.38979871    1.4853554    1.9055396    7.6111964 
 1545000   0.99994808 0.00010579428   0.41882448  0.020468012            0   0.39835647    1.4811731    1.8999976    7.3166647 
 1550000   0.94050204 -8.4702615e-05   0.52673773  0.010633272            0   0.51610446    1.3931186    1.9198564   -2.4169175 
 1555000   0.96076969 -6.4421745e-05   0.47588529  0.009537359            0   0.46634793    1.4231401    1.8990254    -1.399368 
 1560000   0.92611282 6.0944043e-06   0.53499523 0.0046057248            0    0.5303895    1.3718046    1.9067998    2.2188333 
 1565000   0.95935503 -2.3665301e-05   0.48750764 0.0092477799            0   0.47825986    1.4210446    1.9085523   0.69688889 
 1570000   0.94014909 -9.9649667e-05   0.51776768   0.02402649            0   0.49374119    1.3925958    1.9103635   -3.1916994 
 1575000   0.92562777 -7.011846e-05   0.52175155  0.032909712            0   0.48884184    1.3710861    1.8928377   -1.6972275 
 1580000   0.92895036 -2.0418224e-06   0.51233701 0.0092281242            0   0.50310888    1.3760077    1.8883447    1.7838034 
 1585000   0.93869039 -1.6596722e-05   0.51085702  0.005150671            0   0.50570635    1.3904351    1.9012922      1.05154 
 1590000    1.0297287 -4.3206412e-05     0.380241 0.0086096565            0   0.37163134    1.5252857    1.9055267  -0.30664162 
 1595000    1.0101395 -4.6256403e-05   0.46689937 0.0013919757            0    0.4655074    1.4962692    1.9631686  -0.40515924 
 1600000   0.90082769 -0.0001293625   0.63652782 0.0034753033            0   0.63305251     1.334351    1.9708788   -4.6524811 
 1605000    1.0169039 -0.00011389693   0.48549442 0.0091462606            0   0.47634816    1.5062889    1.9917833   -3.8397396 
 1610000    1.0209057 2.5276041e-05   0.50755777  0.011704666            0    0.4958531    1.5122165    2.0197743    3.3139076 
 1615000    1.0237056 -1.5327145e-06   0.51788186  0.008546906            0   0.50933495    1.5163639    2.0342457    1.9557707 
 1620000    1.0944372 0.00012033732   0.42695145  0.027436996            0   0.39951446    1.6211351    2.0480865    8.2093576 
 1625000    1.0126733 -4.8733339e-07      0.50508  0.028118301            0    0.4769617    1.5000223    2.0051023    1.9801508 
 1630000    1.0396771 -0.00010422023   0.46468122  0.013613665            0   0.45106755    1.5400217     2.004703   -3.3313727 
 1635000    1.0067088 -4.5717414e-05   0.50628101  0.017085099            0   0.48919591    1.4911873    1.9974683  -0.34326323 
 1640000   0.98151282 4.3013334e-05   0.54425271  0.018557104            0   0.52569561    1.4538659    1.9981186    4.2004013 
 1645000     1.024694 -7.4231768e-05   0.51227302    0.0134933            0   0.49877972    1.5178281    2.0301011   -1.7705654 
 1650000    1.0096749 -3.3514761e-05   0.52138403  0.012548629            0    0.5088354    1.4955809    2.0169649   0.30100916 
 1655000    1.0114406 -0.00011385409   0.51905616  0.013606008            0   0.50545015    1.4981964    2.0172525   -3.8120766 
 1660000    1.0460402 -5.2991433e-05    0.4770917  0.001397175            0   0.47569453     1.549447    2.0265387  -0.68662267 
 1665000    1.0833779 -6.9948185e-05   0.38245395 0.00040210556            0   0.38205184    1.6047535    1.9872075   -1.5941396 
 1670000   0.97530764 3.5146032e-05   0.55785291 0.0085173525            0   0.54933556    1.4446744    2.0025274    3.8020042 
 1675000    1.0113989 8.8216132e-05   0.50758118  0.010488109            0   0.49709307    1.4981347    2.0057159    6.5223818 
 1680000    1.0711232 -5.2793708e-06   0.42393299  0.014247385            0    0.4096856    1.5866013    2.0105342    1.7402305 
 1685000    1.0131159 2.1589407e-05   0.52774976  0.017313229            0   0.51043653     1.500678    2.0284277    3.1338054 
 1690000    1.0101133 -0.00010212567   0.56381534 0.0096280333            0    0.5541873    1.4962303    2.0600456   -3.1687884 
 1695000    1.1058883 -7.4167211e-05   0.43883711  0.028735707            0    0.4101014     1.638097    2.0769341   -1.7204271 
 1700000    1.0966465 -0.00014587281   0.47815667  0.013647793            0   0.46450888    1.6244076    2.1025643   -5.3661235 
 1705000    1.0090314 3.1216167e-06   0.61929562  0.012389471            0   0.60690615    1.4946278    2.1139235    2.2737502 
 1710000     1.053642 -5.7132771e-05   0.56727465  0.019687385            0   0.54758727    1.5607072    2.1279819  -0.79721602 
 1715000    1.0490911 2.5706979e-05    0.5915168  0.011431146            0   0.58008566    1.5539662     2.145483    3.4616803 
 1720000    1.1578847 1.8058104e-05   0.41243861  0.012545656            0   0.39989295    1.7151167    2.1275553    3.0521302 
 1725000    1.0588635 3.2233789e-05   0.55203687  0.028706403            0   0.52333047    1.5684416    2.1204784    3.7708484 
 1730000    1.0183498 -0.0001223838   0.61533473  0.042226546            0   0.57310819    1.5084306    2.1237653   -4.1422852 
 1735000    1.0383175 -0.00013304734   0.61292516 0.0099272154            0   0.60299794    1.5380078    2.1509329   -4.6610907 
 1740000    1.1174766 4.6508432e-05   0.49124318  0.020083061            0   0.47116012    1.6552623    2.1465055    4.5277372 
 1745000    1.1073288 3.9966502e-05    0.5260726  0.021644852            0   0.50442775    1.6402309    2.1663035    4.2125884 
 1750000    1.1203731 -0.00014965373   0.55763707  0.031299445            0   0.52633763    1.6595526    2.2171897   -5.4450815 
 1755000    1.0492676 8.8064382e-06   0.66132093 0.0036520088            0   0.65766892    1.5542277    2.2155486    2.6664383 
 1760000     1.215866 -7.0134777e-05   0.42203675  0.003497844            0   0.41853891    1.8010015    2.2230382   -1.3678624 
 1765000    1.1198029 8.1652982e-05   0.57505636  0.046437837            0   0.52861853    1.6587081    2.2337644    6.4143971 
 1770000    1.1162407 0.00014808847   0.63871275  0.091438999            0   0.54727375    1.6534315    2.2921442    9.8742741 
 1775000     1.127215 8.4113553e-05   0.62916479  0.031613741            0   0.59755105    1.6696873     2.298852     6.605466 
 1780000    1.1924931 7.5551858e-06   0.53277725  0.017218819            0   0.51555843    1.7663804    2.2991576    2.6859832 
 1785000    1.0976805 -8.5813282e-05    0.7085907  0.079198212            0   0.62939249    1.6259393    2.3345299   -2.0591101 
 1790000    1.2599741 0.00014368756   0.44700517  0.023153157            0   0.42385201    1.8663366    2.3133418    9.6701448 
 1795000    1.0791638 6.6853317e-05   0.71642912  0.013760969            0   0.70266815    1.5985113    2.3149404    5.7378303 
 1800000    1.1908236 -3.9188665e-05    0.5327172    0.0141186            0    0.5185986    1.7639075    2.2966247   0.29016506 
 1805000    1.1242017 -8.5906615e-05   0.63332196  0.069030733            0   0.56429122    1.6652238    2.2985458   -2.0998729 
 1810000     1.169155 4.1572426e-05    0.6030339  0.059438178            0   0.54359572    1.7318108    2.3348447    4.4633529 
 1815000    1.1124634 0.00012130947   0.67435823    0.1147112            0   0.55964703    1.6478364    2.3221946    8.5332393 
 1820000    1.2100872 -8.2313323e-05    0.5112539  0.019085301            0    0.4921686    1.7924417    2.3036956   -1.9107466 
 1825000    1.1221697 -2.5589812e-05    0.6258312  0.032623249            0   0.59320795    1.6622138     2.288045   0.97784664 
 1830000    1.1311799 -2.12314e-05   0.61133205  0.024973914            0   0.58635814    1.6755602    2.2868922    1.1998445 
 1835000    1.2043977 0.00010934983   0.50098523 0.0093837384            0   0.49160149     1.784014    2.2849992    7.8837104 
 1840000    1.1948476 0.0001339188   0.50664997  0.012240808            0   0.49440917     1.769868     2.276518    9.1331606 
 1845000    1.1828763 0.0001681756   0.53376395  0.040102962            0   0.49366098    1.7521355    2.2858995     10.89649 
 1850000    1.0478296 2.1851441e-05   0.70622808  0.053255919            0   0.65297216    1.5520976    2.2583257    3.3771194 
 1855000    1.1092172 -2.4326215e-05   0.58950932 0.0094855915            0   0.58002373     1.643028    2.2325373   0.98703509 
 1860000    1.1649017 0.00012988009   0.50210132  0.003853612            0   0.49824771    1.7255107     2.227612    8.8774725 
 1865000    1.1081681 0.00010819154   0.58210221  0.014520226            0   0.56758198     1.641474    2.2235762     7.762983 
 1870000    1.1485957 -2.6141007e-05   0.51178001  0.031053033            0   0.48072698    1.7013574    2.2131374   0.87471783 
 1875000    1.0363665 -0.00018434043   0.68523854  0.034696424            0   0.65054212    1.5351178    2.2203564   -7.2178738 
 1880000       1.0651 -0.00019742562   0.63230124  0.023322729            0   0.60897851    1.5776794    2.2099806   -7.8982111 
 1885000    1.1219052 0.00010308117   0.56898992  0.049532387            0   0.51945753    1.6618221     2.230812    7.5085681 
 1890000    1.0828666 0.00013290674   0.60022945  0.039688257            0   0.56054119    1.6039961    2.2042256    9.0090507 
 1895000    1.1012629 -2.8891306e-05   0.57093506 0.0095635434            0   0.56137152    1.6312457    2.2021808   0.72294589 
 1900000    1.0824006 -5.0878257e-05   0.60490578 0.0044545378            0   0.60045124    1.6033059    2.2082117  -0.39675507 
 1905000    1.1186051 -9.7840656e-06   0.60315595  0.011726523            0   0.59142943    1.6569337    2.2600897    1.7591455 
 1910000    1.0635945 -2.4354483e-05   0.68437997  0.031769234            0   0.65261074    1.5754494    2.2598293    1.0128798 
 1915000    1.0762082 -8.5335574e-05   0.69587087  0.029104764            0   0.66676611    1.5941334    2.2900043   -2.0791771 
 1920000    1.2028702 0.00010121774   0.48697095  0.010522745            0   0.47644821    1.7817514    2.2687224    7.4510709 
 1925000     1.030443 6.2508114e-06   0.71800396  0.013015474            0   0.70498849    1.5263437    2.2443476    2.5643892 
 1930000    1.0634928 5.1380646e-05   0.67523611  0.065264996            0   0.60997112    1.5752987    2.2505349    4.8812239 
 1935000     1.154466 1.3725045e-05   0.54783554  0.032780885            0   0.51505465    1.7100527    2.2578883    2.9606106 
 1940000    1.1480108 -2.6161559e-05   0.55430983  0.021643274            0   0.53266655     1.700491    2.2548009   0.91532903 
 1945000    1.0973422 -7.0908223e-05   0.62403229  0.023144622            0   0.60088766    1.6254382    2.2494705   -1.3810306 
 1950000    1.0398813 1.0936228e-05   0.69935773  0.018975904            0   0.68038183    1.5403242    2.2396819    2.7996168 
 1955000    1.0660901 7.5682403e-05   0.63246666   0.03863421            0   0.59383245    1.5791459    2.2116126    6.0865516 
 1960000     1.003902 -4.6629338e-05    0.7279708  0.038668176            0   0.68930262    1.4870299    2.2150007  -0.17242139 
 1965000    1.0588576 8.1821943e-05   0.65773152 0.0049799938            0   0.65275153    1.5684328    2.2261643    6.4154478 
 1970000    1.0741358 0.00012755962   0.62601975 0.0034386506            0    0.6225811    1.5910637    2.2170834    8.7481357 
 1975000    1.1232361 -4.6105784e-05   0.54611322 0.0045572616            0   0.54155596    1.6637935    2.2099067  -0.15070939 
 1980000    1.0483007 5.2077302e-05   0.68486995 0.0077989072            0   0.67707105    1.5527954    2.2376654    4.9040232 
 1985000    1.0824984 0.00022038899   0.63829959   0.01455046            0   0.62374913    1.6034507    2.2417503    13.525667 
 1990000    1.1742002 -1.0953176e-05   0.51833309  0.024275684            0   0.49405741     1.739284    2.2576171    1.6968145 
 1995000    1.0811049 -0.00016196772   0.64578836  0.036744987            0   0.60904337    1.6013866     2.247175   -6.0455721 
 2000000    0.9727666 -3.8295073e-05   0.81349682  0.092773492            0   0.72072333    1.4409105    2.2544074   0.29369963 
 2005000    1.0740907 5.6905898e-05   0.63674413  0.049957395            0   0.58678673    1.5909969     2.227741     5.141323 
 2010000     1.185234 8.3950607e-05   0.47992922  0.043511067            0   0.43641815    1.7556279    2.2355571    6.5338282 
 2015000    1.0335614 6.3777497e-05   0.65838536  0.026671539            0   0.63171382    1.5309629    2.1893483    5.4547561 
 2020000    1.0720168 8.7087589e-06     0.580334 0.0064119862            0   0.57392202     1.587925     2.168259    2.6141474 
 2025000    1.0342833 -6.0382898e-05   0.63090271  0.024846637            0   0.60605608    1.5320322    2.1629349  -0.92866947 
 2030000    1.0134604 5.3987366e-05    0.6503428  0.032044024            0   0.61829877    1.5011881    2.1515309    4.9156841 
 2035000    1.0951606 -6.4866585e-05    0.5323047  0.021591254            0   0.51071345    1.6222066    2.1545113   -1.1666579 
 2040000    1.0387385 -6.5776379e-05   0.62064075  0.023984718            0   0.59665603    1.5386313    2.1592721   -1.2084785 
 2045000    1.0628797 6.050667e-06   0.54212723  0.016115791            0   0.52601144    1.5743905    2.1165177    2.4263119 
 2050000   0.97424451 -4.9034307e-05   0.70257294  0.049003378            0   0.65356957    1.4430997    2.1456726  -0.36488389 
 2055000    1.0499763 9.2586317e-06   0.60673749  0.056370035            0   0.55036746    1.5552773    2.1620148    2.6360568 
 2060000    1.0073573 3.7464066e-05   0.64887875  0.016162227            0   0.63271653     1.492148    2.1410267    4.0591869 
 2065000    1.0556763 2.4871319e-05   0.60361828 0.0046459634            0   0.59897232    1.5637205    2.1673388    3.4407503 
 2070000    1.0546912 -3.9755248e-06   0.59156745            0            0   0.59156745    1.5622613    2.1538287    1.9502818 
 2075000    1.0894112 -4.094712e-05   0.53793483 4.1655915e-05            0   0.53789317    1.6136904    2.1516252  0.055132708 
 2080000    1.0038283 -0.00015913598   0.67562529 0.0016691853            0    0.6739561    1.4869207     2.162546   -5.9852164 
 2085000    1.0301223 -8.0553017e-05   0.64315812  0.016273914            0   0.62688421    1.5258686    2.1690268   -1.9552877 
 2090000    1.0824444 -1.9219624e-05   0.55953294   0.03629854            0    0.5232344    1.6033708    2.1629037     1.178859 
 2095000   0.97022694 -0.00010456318    0.7212208  0.012812646            0   0.70840815    1.4371487    2.1583695   -3.1952651 
 2100000     1.044263 6.5889853e-05   0.57563629   0.01756406            0   0.55807223    1.5468146    2.1224509    5.4960114 
 2105000   0.96407574 8.4798926e-06   0.67640177  0.060097659            0   0.61630411    1.4280372     2.104439    2.5386095 
 2110000   0.97220931 -5.0086092e-05   0.66754405  0.029313619            0   0.63823043     1.440085    2.1076291  -0.45677884 
 2115000    1.0127181 3.8357904e-05   0.61389808 0.0057553097            0   0.60814277    1.5000887    2.1139868    4.0779115 
 2120000   0.99523935 6.7973446e-05   0.67441173  0.012107256            0   0.66230447    1.4741983      2.14861    5.6288504 
 2125000    1.0722198 -8.0841848e-05   0.57981103   0.04668484            0   0.53312619    1.5882256    2.1680366    -1.971066 
 2130000    1.0075244 -0.00020293192   0.65181891  0.019291491            0   0.63252742    1.4923955    2.1442144   -8.2458998 
 2135000    1.0665565 3.3057572e-05   0.55756595 0.0041765968            0   0.55338936    1.5798368    2.1374027    3.8299504 
 2140000    1.0591914 0.00010333546   0.60718884  0.021063317            0   0.58612552    1.5689273    2.1761161    7.4668919 
 2145000    1.0259159 0.00012340352   0.66724771  0.016724272            0   0.65052344    1.5196379    2.1868856    8.5051458 
 2150000      1.10011 -4.719283e-06   0.58377021 0.0041808278            0   0.57958939    1.6295379    2.2133081    1.9716808 
 2155000    1.0839179 -0.00025995508   0.61248351  0.011916492            0   0.60056702    1.6055534    2.2180369   -11.091663 
 2160000     1.109998 -3.9616753e-05   0.56421779  0.015551762            0   0.54866603    1.6441846    2.2084024   0.18002461 
 2165000    1.1192158 0.00017355519   0.58533399 0.0093494415            0   0.57598455    1.6578384    2.2431724    11.129198 
 2170000   0.99338767 3.5460172e-05   0.79150383  0.017563888            0   0.77393994    1.4714555    2.2629593    4.0785201 
 2175000    1.0327723 -3.0838708e-05   0.72937683  0.019533646            0   0.70984318    1.5297939    2.2591707   0.68022891 
 2180000    1.0890265 0.00012030257   0.61950841  0.018766904            0   0.60074151    1.6131204    2.2326289    8.3921205 
 2185000   0.98192839 0.0001309995   0.77497264  0.024015008            0   0.75095763    1.4544814    2.2294541    8.9366287 
 2190000    1.0821297 -2.7723861e-05   0.63235849 0.0063857417            0   0.62597275    1.6029046    2.2352631   0.81580135 
 2195000    1.1255883 4.8003652e-05   0.60039104   0.01202132            0   0.58836972    1.6672777    2.2676687    4.7254557 
 2200000    1.1072258 0.00015197394   0.60771444 0.0091193004            0   0.59859514    1.6400783    2.2477927    10.028859 
 2205000    1.0801352 1.8817748e-05   0.67074225 0.0096161676            0   0.66112608    1.5999503    2.2706925    3.2341612 
 2210000    1.1529827 3.3689934e-05   0.55807186  0.022528751            0   0.53554311    1.7078556    2.2659275    3.9908521 
 2215000    1.1445054 1.7631233e-05   0.56900901  0.022456975            0   0.54655203    1.6952986    2.2643077    3.1670268 
 2220000     1.026198 -9.7021585e-06   0.76555465   0.01618166            0   0.74937299    1.5200558    2.2856104    1.7888599 
 2225000    1.1420639 7.7439742e-05   0.59369038  0.010558174            0    0.5831322    1.6916821    2.2853725    6.2502872 
 2230000    1.2239218 2.5296936e-05   0.47906392  0.026606478            0   0.45245744    1.8129341     2.291998    3.5872012 
 2235000    1.0874064 3.7492276e-05   0.64953256  0.016921704            0   0.63261086    1.6107208    2.2602534    4.1798579 
 2240000    1.1460176 7.5532644e-05   0.57127387  0.013653294            0   0.55762058    1.6975386    2.2688125    6.1360838 
 2245000    1.1306287 2.6621711e-05    0.5943415  0.010942137            0   0.58339936    1.6747438    2.2690853    3.6321169 
 2250000    1.1344034 -9.7074539e-05   0.60751821  0.029824381            0   0.57769383     1.680335    2.2878532   -2.6823632 
 2255000    1.1248079 -2.8460665e-05   0.61325224   0.04712971            0   0.56612253    1.6661217    2.2793739   0.82218788 
 2260000    1.0789875 0.00012322705   0.68376146  0.033792761            0    0.6499687    1.5982502    2.2820117    8.5912367 
 2265000    1.1081777 9.5982978e-06   0.64613707  0.015990744            0   0.63014633    1.6414882    2.2876253    2.7790582 
 2270000     1.097336 0.00010106798   0.65066103  0.020070542            0   0.63059048    1.6254289      2.27609    7.4507703 
 2275000    1.1367727 0.00016727024   0.60138506  0.013566799            0   0.58781826    1.6838445    2.2852296    10.849466 
 2280000    1.0811234 9.7479636e-05   0.67666509 0.0047812675            0   0.67188383     1.601414    2.2780791    7.2690365 
 2285000    1.0838038 6.7504059e-05   0.64915182  0.024206655            0   0.62494516    1.6053844    2.2545363    5.7107441 
 2290000       1.0292 -6.9204083e-05   0.72586639  0.045549331            0   0.68031706    1.5245024    2.2503688   -1.2928802 
 2295000    1.0460134 1.5428867e-05    0.6868931  0.051333598            0    0.6355595    1.5494074    2.2363005    3.0262585 
 2300000    1.1197703 -5.065875e-05   0.56727951  0.019324632            0   0.54795488    1.6586597    2.2259392  -0.36778883 
 2305000    1.0212406 -5.7292628e-05   0.70635817  0.019581699            0   0.68677647    1.5127126    2.2190708  -0.71431175 
 2310000     1.116471 1.5833659e-05   0.55000483  0.020343387            0   0.52966144    1.6537726    2.2037775    3.0144608 
 2315000    1.0763316 -5.3165755e-05   0.59311563  0.023682166            0   0.56943346    1.5943161    2.1874318  -0.53465491 
 2320000    1.0685188 -0.00011276623   0.61662925  0.028471118            0   0.58815813    1.5827435    2.1993727   -3.5742582 
 2325000    1.1081751 3.3340737e-05   0.57608542  0.045347716            0    0.5307377    1.6414843    2.2175697    3.9246154 
 2330000   0.97536886 7.7853622e-05    0.7749554  0.027690796            0    0.7472646    1.4447651    2.2197205     6.205826 
 2335000    1.1651203 4.1008533e-05   0.49297469   0.01960283            0   0.47337186    1.7258345    2.2188092    4.3184461 
 2340000    1.1391736 5.132231e-05   0.51749427  0.013798086            0   0.50369619     1.687401    2.2048952    4.8325975 
 2345000    1.0489059 6.5892041e-05   0.63661967  0.041316517            0   0.59530315    1.5536919    2.1903115     5.563984 
 2350000   0.95568423 -1.563663e-05    0.7678597  0.086284227            0   0.68157547    1.4156073     2.183467    1.3828715 
 2355000    1.0670604 -8.0622355e-05   0.58186774  0.056713127            0   0.52515461    1.5805832    2.1624509   -1.9654136 
 2360000   0.92886424 4.8616146e-05   0.74893337  0.043714621            0   0.70521875    1.3758802    2.1248135    4.6139602 
 2365000    1.0073724 1.9044826e-05   0.59718133   0.03208683            0    0.5650945    1.4921704    2.0893517    3.0644468 
 2370000    1.0135866 -2.434088e-05   0.59686432   0.02209415            0   0.57477017    1.5013751    2.0982395   0.85198638 
 2375000    1.0232295 -8.2600547e-05   0.58554258  0.050859023            0   0.53468355    1.5156587    2.1012012   -2.1279468 
 2380000   0.93768569 -0.00010550098   0.71216951  0.054118498            0   0.65805101    1.3889469    2.1011164   -3.3005337 
 2385000    1.0674528 -2.6650484e-05   0.50977243  0.020484161            0   0.48928827    1.5811645    2.0909369   0.72643216 
 2390000    1.0349341 2.6608979e-05   0.50431735  0.038622875            0   0.46569447    1.5329961    2.0373135    3.3996932 
 2395000    1.0098545 4.1363951e-05   0.52854649  0.025292774            0   0.50325372     1.495847    2.0243935    4.1422278 
 2400000    1.0099652 1.8354173e-05    0.5302824  0.059799805            0    0.4704826     1.496011    2.0262934     2.966027 
 2405000    1.0838232 -1.1401364e-05   0.41186091  0.011241179            0   0.40061973    1.6054132    2.0172741    1.4335243 
 2410000    1.0757084 0.00012982533   0.43342887 0.0040738791            0   0.42935499     1.593393    2.0268219    8.6738788 
 2415000   0.99222577 -6.5284623e-05   0.54709927  0.022965128            0   0.52413414    1.4697344    2.0168337    -1.325739 
 2420000    1.0159383 -2.0686023e-05   0.52060964   0.02970987            0   0.49089977    1.5048587    2.0254683    0.9663439 
 2425000     1.008738 -3.0696966e-05   0.49977407 0.0067567253            0   0.49301734    1.4941932    1.9939672   0.42228259 
 2430000   0.97587833 -1.8930598e-05   0.53201014 0.0027196501            0   0.52929049    1.4455198    1.9775299    1.0082833 
 2435000    1.0072609 -5.5305265e-05   0.48438287  0.004805051            0   0.47957782    1.4920051     1.976388  -0.85524157 
 2440000   0.89380082 -0.0001142378    0.6660335 0.0061336583            0   0.65989984    1.3239425     1.989976   -3.8589994 
 2445000   0.91524519 -8.8577652e-05   0.62248626 0.0095763176            0   0.61290994    1.3557069    1.9781932   -2.5569826 
 2450000   0.95484092 2.4715487e-06   0.51205101  0.010834567            0   0.50121644    1.4143581    1.9264091    2.0529524 
 2455000   0.91390012 8.4989865e-05   0.58133111 0.0073530352            0   0.57397807    1.3537146    1.9350457    6.2865267 
 2460000   0.92409925 0.00012211805   0.56874878  0.024441816            0   0.54430696     1.368822    1.9375708     8.190015 
 2465000   0.91046322 4.6176255e-05   0.57777122  0.032042502            0   0.54572872    1.3486236    1.9263949    4.2906191 
 2470000   0.98241753 -4.5548801e-05    0.4905731  0.024566748            0   0.46600635     1.455206    1.9457791  -0.38631954 
 2475000   0.97484467 3.7819226e-05   0.50565389  0.035928785            0    0.4697251    1.4439887    1.9496426    3.8859869 
 2480000   0.88393813 0.00012193644   0.64363827  0.034382611            0   0.60925566    1.3093334    1.9529716    8.1961176 
 2485000     1.014814 6.8382125e-06   0.46290236  0.019595603            0   0.44330676    1.5031933    1.9660956    2.3162121 
 2490000   0.97084574 -3.4657821e-05   0.54492841   0.02316828            0   0.52176013    1.4380653    1.9829937   0.20851322 
 2495000   0.91413016 6.9864235e-05   0.62271931  0.019810633            0   0.60290868    1.3540553    1.9767746    5.5538234 
 2500000   0.94010206 4.4504605e-05    0.6173181 0.0074558861            0   0.60986221    1.3925262    2.0098443      4.28848 
 2505000    1.0006345 -4.4728224e-05   0.53573905  0.002113012            0   0.53362604    1.4821899     2.017929  -0.27215611 
 2510000    0.9728061 -5.8819502e-05   0.57664752 0.0054824314            0   0.57116509     1.440969    2.0176165  -0.99394196 
 2515000   0.90375885 2.3985095e-05   0.66487926  0.024630179            0   0.64024909    1.3386928    2.0035721    3.2316089 
 2520000   0.93054339 5.5102151e-05   0.59453045  0.040889573            0   0.55364087    1.3783674    1.9728978     4.794128 
 2525000   0.98862799 -1.617312e-05   0.50595986 0.0095075839            0   0.49645227    1.4644052    1.9703651    1.1423013 
 2530000   0.93189022 6.2679047e-06   0.54986118  0.010021744            0   0.53983943    1.3803624    1.9302236    2.2511403 
 2535000    0.9279958 5.3622158e-05   0.59628726 0.0062888008            0   0.58999846    1.3745938     1.970881    4.7163355 
 2540000   0.86153741 7.0734659e-05   0.67883798 0.0010834099            0   0.67775457    1.2761523    1.9549903    5.5766048 
 2545000   0.94107327 6.9663696e-05   0.54328953 0.0030993039            0   0.54019023    1.3939648    1.9372543    5.5040355 
 2550000   0.99132574 -4.8244001e-05   0.46416927 0.0063628588            0   0.45780641    1.4684013    1.9325705  -0.53752233 
 2555000    0.9189807 -0.00012593275   0.55665648 0.0051262167            0   0.55153027    1.3612402    1.9178966   -4.5298602 
 2560000   0.91088677 -3.6122527e-05    0.5660982  0.034144317            0   0.53195388     1.349251    1.9153492  0.065875841 
 2565000   0.90788169 -4.5576955e-05   0.58777102  0.038439093            0   0.54933193    1.3447998    1.9325708  -0.40096931 
 2570000   0.94615068 -2.8172808e-05   0.53995103  0.012579977            0   0.52737105    1.4014857    1.9414367   0.49898895 
 2575000   0.96453245 6.0120514e-05   0.52838603 0.0030119348            0   0.52537409    1.4287137    1.9570997      5.03527 
 2580000   0.93199534 1.5227477e-05   0.57131667 0.0056707587            0   0.56564591    1.3805181    1.9518348    2.7314816 
 2585000   0.89132519 2.8300965e-05   0.60837207  0.014765597            0   0.59360647    1.3202754    1.9286475    3.3776569 
 2590000    0.9037972 5.6660346e-05   0.58590909  0.020270962            0   0.56563813    1.3387496    1.9246587    4.8256684 
 2595000   0.90630859 -6.0157685e-06    0.5682823  0.024462594            0   0.54381971    1.3424696    1.9107519    1.6027446 
 2600000    0.9056111 -2.7384926e-06   0.57567267  0.008441702            0   0.56723097    1.3414364    1.9171091    1.7768983 
 2605000    0.9070914 5.4869766e-05   0.53324998  0.016483526            0   0.51676646    1.3436291    1.8768791    4.6862111 
 2610000   0.87488475 -6.4221927e-05   0.55827738  0.015736148            0   0.54254123     1.295923    1.8542004   -1.4339622 
 2615000   0.88645391 -7.9353581e-05   0.53811747 0.0046346418            0   0.53348283    1.3130599    1.8511773    -2.211726 
 2620000   0.85633687 7.6952176e-05    0.6080186  0.021231262            0   0.58678734     1.268449    1.8764676     5.816419 
 2625000   0.93347937 6.9232569e-05   0.54329319  0.039037121            0   0.50425607    1.3827163    1.9260095     5.470717 
 2630000   0.99272218 5.6414312e-05   0.42364485  0.040889181            0   0.38275567    1.4704697    1.8941146    4.7825274 
 2635000     0.860028 1.3553735e-05   0.59623786  0.010898586            0   0.58533927    1.2739165    1.8701543    2.5641056 
 2640000   0.86160334 -5.5992058e-05   0.58346325 0.0044238658            0   0.57903939    1.2762499    1.8597132   -1.0070802 
 2645000   0.95040621 -7.0316165e-05   0.45189855 0.0067205711            0   0.44517797    1.4077892    1.8596878   -1.7404999 
 2650000    0.8742533 -4.2538525e-05    0.5776357  0.020429522            0   0.55720618    1.2949877    1.8726234  -0.30534907 
 2655000   0.92982304 3.0202888e-05   0.51147957  0.016989567            0      0.49449    1.3773004    1.8887799    3.4351678 
 2660000   0.86075842 -4.4265816e-05   0.61760586  0.047392667            0    0.5702132    1.2749984    1.8926043   -0.3738055 
 2665000   0.94297038 8.9044171e-07   0.51168007  0.039821348            0   0.47185872    1.3967749    1.9084549    1.9540456 
 2670000   0.91329323 6.8743451e-05   0.57180919  0.036843517            0   0.53496567    1.3528156    1.9246248    5.4442895 
 2675000   0.94435466 2.7944342e-05   0.53118746   0.03022113            0   0.50096633    1.3988253    1.9300128    3.3607631 
 2680000   0.91097189 -0.00012613127   0.59690687  0.026237316            0   0.57066956    1.3493771     1.946284   -4.5116373 
 2685000    1.0331733 3.1561554e-05   0.43001758  0.036851784            0   0.39316579    1.5303879    1.9604055     3.576357 
 2690000    1.0239898 2.9513129e-05   0.47207889  0.018771369            0   0.45330752    1.5167848    1.9888637    3.4999359 
 2695000    1.0018995 -0.00014253303   0.51745913  0.011272503            0   0.50618662    1.4840637    2.0015228   -5.2961684 
 2700000   0.99225757 -9.5993962e-05   0.52841456 0.0093609543            0   0.51905361    1.4697815    1.9981961   -2.9166948 
 2705000    1.0415778 -4.8301689e-05    0.4297939 0.0097646098            0   0.42002929    1.5428372    1.9726311  -0.50041539 
 2710000    1.0042129 4.1642774e-05   0.51394871  0.010872378            0   0.50307634    1.4874904    2.0014391    4.1335491 
 2715000    1.0201487 1.3844861e-05   0.48433526 0.0021593831            0   0.48217588    1.5110952    1.9954305    2.7042874 
 2720000    1.0098147 -8.8368332e-05   0.50901899 0.0020980947            0    0.5069209     1.495788     2.004807   -2.5196516 
 2725000    1.0215829 -2.0509589e-05   0.48807351 0.0085524095            0    0.4795211    1.5132196    2.0012931   0.95120217 
 2730000    1.0121436 9.5952827e-05   0.47868226  0.059311015            0   0.41937125    1.4992377      1.97792    6.8907047 
 2735000   0.93440699 0.00013713475   0.61369788  0.068720343            0   0.54497754    1.3840904    1.9977882    9.0190876 
 2740000   0.95518855 7.0860228e-05   0.57518668   0.01017675            0   0.56500993     1.414873    1.9900597    5.6181034 
 2745000    1.0056343 -3.8289695e-05   0.49726797  0.014487882            0   0.48278009    1.4895958    1.9868638  0.026431396 
 2750000    1.0013625 -7.9631327e-05   0.50400861  0.037857136            0   0.46615148    1.4832682    1.9872768   -2.0898472 
 2755000   0.98198604 1.1431157e-05   0.55009652 0.0052169246            0    0.5448796    1.4545668    2.0046633    2.5899386 
 2760000   0.95126208 -3.1205322e-05   0.58538368  0.010075585            0    0.5753081     1.409057    1.9944406   0.39672815 
 2765000    1.0172852 -5.6185828e-05   0.50502088  0.010196935            0   0.49482394    1.5068537    2.0118746   -0.8648398 
 2770000    1.0269472 -6.6987017e-06   0.52183579  0.033678828            0   0.48815696    1.5211656    2.0430014    1.7000279 
 2775000    1.0145195 8.0973089e-06   0.53362351  0.042110576            0   0.49151294     1.502757    2.0363805    2.4509628 
 2780000   0.93175567 8.5694821e-05   0.64413174  0.021969665            0   0.62216208    1.3801631    2.0242948    6.4118697 
 2785000   0.99791257 5.6996693e-05   0.53832108  0.013374691            0   0.52494639     1.478158    2.0164791    4.9347098 
 2790000    1.0795865 -4.5089497e-05   0.42412045  0.026437436            0   0.39768302    1.5991375     2.023258  -0.28532425 
 2795000    1.0149416  2.49298e-05   0.50280185  0.041752067            0   0.46104978    1.5033823    2.0061842    3.2825899 
 2800000   0.93819833 1.2591252e-05   0.59029546  0.074329161            0   0.51596629    1.3897063    1.9800017    2.6246738 
 2805000    1.0123917 -5.0180687e-05   0.46659763  0.013799175            0   0.45279845    1.4996051    1.9662028   -0.6030484 
 2810000    0.8498017 -4.7326497e-05   0.68794289  0.068485382            0    0.6194575    1.2587688    1.9467117  -0.47640501 
 2815000   0.89785694 -0.000115419   0.62019813  0.064609839            0   0.55558829    1.3299506    1.9501487   -3.9593043 
 2820000   0.97304976 -0.00015207794   0.52417716  0.022865129            0   0.50131203      1.44133    1.9655071   -5.8208836 
 2825000   0.98648282 -2.3392402e-05   0.51791189  0.004757617            0   0.51315428    1.4612277    1.9791396   0.78144861 
 2830000   0.98647411 0.0001115895   0.49269707 0.0032106414            0   0.48948643    1.4612148    1.9539118    7.6672944 
 2835000   0.98623235 1.6058929e-05   0.50707077 0.0064191296            0   0.50065164    1.4608567    1.9679274    2.7901446 
 2840000    1.0204586 -8.1246864e-05    0.4451335  0.006216917            0   0.43891658    1.5115543    1.9566878   -2.2031517 
 2845000   0.98657314 -0.0001014431   0.49388992  0.013541401            0   0.48034852    1.4613615    1.9552514   -3.2386351 
 2850000   0.97061295 -0.00015830634   0.52015789  0.034449576            0   0.48570831    1.4377204    1.9578783   -6.1474061 
 2855000   0.99221774 -7.7412225e-05    0.5072418  0.031538865            0   0.47570294    1.4697225    1.9769643   -1.9865416 
 2860000   0.99325967  9.94762e-05   0.48550529  0.016501406            0   0.46900389    1.4712659    1.9567712    7.0499526 
 2865000    1.0214145 9.5710454e-05   0.44789109  0.008206341            0   0.43968474    1.5129702    1.9608612    6.8612365 
 2870000   0.98996944 -3.5667191e-05    0.5172607  0.028285571            0   0.48897513    1.4663922    1.9836529   0.15749274 
 2875000   0.96606522 -2.4498741e-05   0.52948896 0.0097916135            0   0.51969735    1.4309841    1.9604731   0.70613754 
 2880000    1.0196868 4.4611246e-07   0.43375637  0.017503863            0   0.41625251     1.510411    1.9441674    1.9670084 
 2885000    1.0423422 -8.6335613e-05   0.44859669 0.0045409488            0   0.44405575    1.5439694    1.9925661   -2.4278173 
 2890000     1.014968 -8.796539e-05   0.48756225            0            0   0.48756225    1.5034214    1.9909836   -2.5128443 
 2895000   0.99626304 9.7252155e-06   0.54209739 0.0001671081            0   0.54193028    1.4757146     2.017812     2.515743 
 2900000    1.0977777 8.0189638e-05   0.40400185  0.044303486            0   0.35969837    1.6260833    2.0300851    6.1357946 
 2905000    1.0938105 -2.4750386e-05   0.41441775  0.070066076            0   0.34435168    1.6202068    2.0346245   0.76740476 
 2910000    1.1082734 -4.277138e-06   0.42003346 0.0070439821            0   0.41298948    1.6416299    2.0616634    1.8426739 
 2915000    1.0315575 1.7046736e-05   0.53640231            0            0   0.53640231    1.5279946    2.0643969    2.9371898 
 2920000    1.0260672 -0.00014042696   0.55461559 1.0699415e-05            0   0.55460489     1.519862    2.0744776   -5.1153829 
 2925000    1.1031183 -8.2799475e-05   0.43840757 0.0050683732            0   0.43333919     1.633994    2.0724015   -2.1669316 
 2930000    1.0847857 0.00013246289   0.47806052  0.018636143            0   0.45942437    1.6068388    2.0848993    8.8669995 
 2935000      1.09394 7.051208e-05   0.44796299  0.031160813            0   0.41680218    1.6203986    2.0683616    5.6785801 
 2940000    1.1336705 -6.9921701e-05   0.40070734  0.021016567            0   0.37969077    1.6792494    2.0799567   -1.5000344 
 2945000    1.0481183 2.6765128e-06   0.50409062  0.017805752            0   0.48628487    1.5525253    2.0566159    2.1936534 
 2950000    1.0350963 4.6901411e-05   0.52808104  0.019017508            0   0.50906353    1.5332365    2.0613175    4.4626697 
 2955000     1.033027 -6.6492595e-06   0.52462425  0.020385685            0   0.50423857    1.5301712    2.0547955    1.7143534 
 2960000    1.0505837 -5.5854525e-05   0.50378656  0.044072692            0   0.45971387    1.5561771    2.0599637  -0.79978798 
 2965000    1.0439588 -8.9044608e-05   0.48447689  0.015164988            0    0.4693119     1.546364    2.0308409   -2.5282431 
 2970000    1.0484403 4.2936432e-05   0.49187473  0.018551436            0    0.4733233    1.5530022    2.0448769    4.2432222 
 2975000   0.98979997 0.00013410971    0.5807833  0.014292549            0   0.56649075    1.4661412    2.0469245    8.9133416 
 2980000    1.0517935 2.8305231e-05   0.47828199  0.066590562            0   0.41169143    1.5579691    2.0362511    3.4854789 
 2985000    1.0421458 -0.00010339211   0.49899852  0.030955922            0   0.46804259    1.5436785     2.042677   -3.2509989 
 2990000     1.044061 -0.00012398776   0.45418776 0.0046467434            0   0.44954101    1.5465154    2.0007031     -4.34747 
 2995000    1.0635805 -5.2198351e-05   0.43537592  0.010505543            0   0.42487038    1.5754286    2.0108045  -0.66175109 
[...]
19285000    1.0064901 7.7148837e-05   0.52130161 0.0012112675            0   0.52009035    1.4908635    2.0121651    5.9621855 
19290000   0.96750658 -4.5647506e-05   0.58750334 0.00023209457            0   0.58727124    1.4331191    2.0206225  -0.31652987 
19295000   0.89267947 -5.5408668e-05    0.7031586  0.010322032            0   0.69283657    1.3222815    2.0254401  -0.81148374 
19300000   0.98853477 9.4990726e-05   0.54693726   0.01852579            0   0.52841147    1.4642671    2.0112044    6.8747295 
19305000   0.96509968 -4.4106689e-05    0.5934087 0.0034177998            0    0.5899909    1.4295539    2.0229626  -0.23529987 
19310000   0.94453481 -3.2230522e-05   0.60828151 0.0023613732            0   0.60592013    1.3990922    2.0073737   0.35717097 
19315000    1.0415447 6.5017973e-05   0.48937589 0.0031440983            0   0.48623179    1.5427881     2.032164    5.3610842 
19320000   0.95735188 1.0041773e-05    0.6322581 0.0057596936            0    0.6264984    1.4180775    2.0503356    2.5644743 
19325000    1.0025116 0.00010914857   0.55802707  0.015389858            0   0.54263721    1.4849702    2.0429973    7.6314041 
19330000   0.95361229 4.2135577e-05   0.62564498  0.020321812            0   0.60532317    1.4125382    2.0381832    4.1955247 
19335000   0.92191748 7.4796004e-06   0.65599828  0.031703583            0    0.6242947    1.3655903    2.0215885    2.4045441 
19340000   0.96833182 2.880851e-05   0.55798092   0.01483451            0   0.54314641    1.4343415    1.9923224    3.4673182 
19345000   0.93604011 -0.00010221107   0.58236066  0.010832555            0   0.57152811    1.3865094    1.9688701   -3.2643367 
19350000   0.91766614 -7.0475428e-05   0.62929447 0.00098036748            0    0.6283141     1.359293    1.9885874   -1.6197545 
19355000   0.98669318 -2.6703196e-05   0.54525331  0.004646673            0   0.54060664    1.4615393    2.0067926   0.63958894 
19360000   0.96593672 4.4202746e-05   0.59708987 0.0047915951            0   0.59229827    1.4307938    2.0278836    4.2910642 
19365000    0.9988019 0.0001259692   0.56979211  0.001121183            0   0.56867093    1.4794753    2.0492674    8.4988905 
19370000    1.0341389 3.9966564e-05   0.52360508 1.5278244e-05            0   0.52358981    1.5318182    2.0554233    4.1017114 
19375000    1.0650559 5.3324283e-05   0.53891482 0.0005075716            0   0.53840725    1.5776141    2.1165289    4.8467322 
19380000    1.0400598 3.9418594e-05   0.57886889 0.0011302066            0   0.57773868    1.5405886    2.1194575    4.1376895 
19385000    1.0354027 -7.1036051e-07   0.54133603 0.0049328881            0   0.53640315    1.5336903    2.0750263    2.0386558 
19390000    1.0870414 2.0890644e-05   0.45994221  0.022808757            0   0.43713345      1.61018    2.0701222    3.1397232 
19395000   0.99586741 -3.0097984e-05   0.59404477  0.055954396            0   0.53809038    1.4751286    2.0691734   0.52815659 
19400000    1.0499974 8.940798e-05   0.47783217  0.015586924            0   0.46224525    1.5553086    2.0331408    6.6108293 
19405000   0.96853487 7.6715522e-05   0.61812572     0.028498            0   0.58962772    1.4346423     2.052768    5.9806027 
19410000    1.0306863 9.2011682e-06    0.5173189  0.015153254            0   0.50216565    1.5267041     2.044023    2.5151228 
19415000   0.97077947 3.8382848e-05    0.6151873  0.047090779            0   0.56809652    1.4379671    2.0531544    4.0183562 
19420000    1.0303265 -6.8936577e-05   0.49784441 0.0097004164            0   0.48814399    1.5261712    2.0240156   -1.5055372 
19425000   0.99995523 1.124377e-05   0.54098387 0.00014359999            0   0.54084027    1.4811837    2.0221676    2.5978486 
19430000   0.94875326 6.0643302e-05   0.59528958 0.0009881367            0   0.59430144    1.4053408    2.0006303    5.1055674 
19435000   0.97203401 -2.3823256e-05    0.5695478 0.0012646459            0   0.56828316    1.4398254    2.0093732   0.78962247 
19440000    1.0124086 3.1787148e-05   0.48676282 0.0070143082            0   0.47974851    1.4996302     1.986393     3.613895 
19445000    1.0324873 -8.939406e-05   0.48230617  0.021826717            0   0.46047946    1.5293718    2.0116779   -2.5652979 
19450000   0.96584883 -0.00012741034   0.59882852  0.013742519            0     0.585086    1.4306636    2.0294921   -4.4939175 
19455000   0.97851797 2.553282e-05   0.55804367  0.001751597            0   0.55629207    1.4494297    2.0074734    3.3147538 
19460000    1.0340713 -1.7410901e-05   0.46722882  0.004042138            0   0.46318668    1.5317181    1.9989469    1.1075087 
19465000   0.99730843 -5.2475568e-06   0.53005733 0.0098047731            0   0.52025255    1.4772631    2.0073204    1.7386455 
19470000   0.98280815 4.870366e-05   0.57084918  0.013898675            0   0.55695051    1.4557846    2.0266338    4.5202611 
19475000     1.032804 -0.00011402316   0.48785359  0.011814102            0   0.47603949    1.5298409    2.0176945   -3.8202915 
19480000   0.88265051 -0.00015743045   0.67951287 0.0043936165            0   0.67511925    1.3074261    1.9869389   -6.0734999 
19485000    1.0140729 -1.4199191e-05   0.48517679 0.0001860191            0   0.48499077    1.5020954    1.9872722    1.2602736 
19490000   0.95605339 5.0459057e-06    0.5994719  0.001781943            0   0.59768996    1.4161541     2.015626    2.2739764 
19495000   0.94800131 0.00014097928   0.60632823 0.0036022128            0   0.60272602    1.4042269    2.0105552    9.2286944 
19500000    1.0259998 -7.7699016e-05   0.49896746 0.0013489176            0   0.49761855    1.5197622    2.0187296     -1.95946 
19505000    1.0318127 -5.5594422e-05   0.46694322  0.011953879            0   0.45498934    1.5283725    1.9953158  -0.85111863 
19510000   0.96092784 -3.8894523e-05   0.57206443   0.05592337            0   0.51614106    1.4233744    1.9954388 0.0040392326 
19515000   0.90804345 2.926855e-05   0.60249492  0.047922223            0    0.5545727    1.3450394    1.9475343    3.4460841 
19520000   0.96131343 3.8106877e-05   0.50618419  0.022166895            0   0.48401729    1.4239455    1.9301297    3.8812018 
19525000   0.97109536 6.9282252e-05   0.52555042  0.033833281            0   0.49171714     1.438435    1.9639854    5.5112367 
19530000   0.98558339 0.00011675912   0.49433078  0.014681459            0   0.47964932    1.4598954    1.9542262    7.9322929 
19535000   0.98233986 -1.4861831e-05   0.52144091  0.013392462            0   0.50804844    1.4550909    1.9765318    1.2156061 
19540000   0.96473454 4.8714821e-05   0.55485469  0.041867491            0    0.5129872     1.429013    1.9838677    4.4780666 
19545000    1.0157767 -2.5008409e-05   0.50977751  0.027687671            0   0.48208984    1.5046193    2.0143968   0.73396625 
19550000     1.078227 5.2152404e-05   0.42517524  0.015159237            0     0.410016    1.5971238     2.022299    4.6925021 
19555000    1.0099101 7.7275294e-05   0.54154099  0.017486836            0   0.52405415    1.4959294    2.0374704    5.9939654 
19560000    1.0231735 5.9989854e-05   0.54130813  0.041243968            0   0.50006416    1.5155757    2.0568838    5.1283643 
19565000    1.0099572 4.0198227e-06   0.55327334  0.032485176            0   0.52078816    1.4959992    2.0492725    2.2550874 
19570000   0.99695028 7.7516889e-05   0.59276721  0.092313028            0   0.50045418    1.4767326    2.0694998    6.0383645 
19575000     1.013991 -4.6162608e-05   0.58044148  0.022424132            0   0.55801734    1.5019742    2.0824157  -0.28110984 
19580000    1.0258355 -0.00017802113   0.57420416 0.0025017223            0   0.57170243    1.5195189     2.093723    -7.020959 
19585000    1.0570139 -0.00014210019   0.51727581  0.007231372            0   0.51004443    1.5657018    2.0829776   -5.1925524 
19590000   0.94354979 5.5800386e-05   0.68860777  0.005483138            0   0.68312463    1.3976331    2.0862409    4.9432207 
19595000    1.0716845 4.6110724e-05   0.52323545  0.010974215            0   0.51226124    1.5874327    2.1106681    4.4715372 
19600000     1.096731 -6.13214e-05   0.49305378  0.019803415            0   0.47325036    1.6245328    2.1175866   -1.0220691 
19605000   0.96628516 9.8749763e-06   0.66494109  0.027356522            0   0.63758457    1.4313099     2.096251    2.6018498 
19610000   0.97729891 9.4970385e-05   0.66158007  0.073367695            0   0.58821237     1.447624    2.1092041    6.9716878 
19615000    1.0603636 5.592984e-05   0.53990531  0.015344705            0    0.5245606    1.5706636    2.1105689    4.9741767 
19620000    1.0619362 9.3748015e-05   0.52732844 0.0053235937            0   0.52200485     1.572993    2.1003215    6.9002198 
19625000      1.06152 -5.5110659e-05   0.55344627  0.015466409            0   0.53797986    1.5723766    2.1258228  -0.69584291 
19630000    1.0103059 -0.00017492798   0.63145634  0.013261961            0   0.61819438    1.4965156     2.127972   -6.8283409 
19635000     1.065464 -9.9274058e-05   0.54623541  0.014954413            0   0.53128099    1.5782185    2.1244539   -2.9583779 
19640000    1.0462189 -9.5360323e-05    0.5640674  0.014242274            0   0.54982512    1.5497118    2.1137792   -2.7686694 
19645000    1.1103499 -0.00011320245    0.5007304 0.0023365589            0   0.49839385    1.6447057    2.1454361   -3.6505292 
19650000    1.0103734 1.6467101e-05    0.6406939 0.00082210719            0   0.63987179    1.4966156    2.1373095    2.9804251 
19655000    1.0895251 2.9288472e-05   0.51266137  0.015836954            0   0.49682442    1.6138591    2.1265205    3.6260902 
19660000    1.1107378 1.3293868e-05   0.44726687  0.015342689            0   0.43192418    1.6452804    2.0925472    2.7731933 
19665000    1.0452965 2.0722918e-05   0.55591657 0.0015162909            0   0.55440028    1.5483455    2.1042621    3.1652755 
19670000    1.0731153 2.5720702e-05   0.51140272 0.0013574344            0   0.51004528     1.589552    2.1009547    3.4178547 
19675000    1.0113156 -5.2501393e-05    0.5920199 0.0040223709            0   0.58799753    1.4980113    2.0900312  -0.59804014 
19680000    1.0372399 2.9895097e-06   0.59127576  0.018180421            0   0.57309534    1.5364117    2.1276874    2.2807503 
19685000    1.0909835 3.9109337e-05   0.49824911   0.01188432            0   0.48636479    1.6160194    2.1142685    4.1166665 
19690000    1.0847253 3.1289371e-05   0.51924753 0.0040625539            0   0.51518498    1.6067493    2.1259968    3.7280126 
19695000   0.98878105 9.4399941e-06    0.6371052 0.0014369486            0   0.63566825    1.4646319    2.1017371    2.5850648 
19700000    1.0867603  6.61399e-07   0.48737654 0.0099052099            0   0.47747133    1.6097636    2.0971402    2.1310038 
19705000    1.0373738 1.034121e-05   0.56308293   0.01036601            0   0.55271692    1.5366099    2.0996929    2.6291628 
19710000    1.0695884 1.4738569e-05   0.54347242  0.012167925            0   0.53130449    1.5843278    2.1278002    2.8824149 
19715000    1.0188614 1.0370002e-05   0.62060318  0.074724974            0   0.54587821    1.5091884    2.1297916    2.6607357 
19720000     1.066384 -7.9061691e-05   0.55233919  0.045425353            0   0.50691384    1.5795814    2.1319206    -1.916038 
19725000    1.0235323 -0.0001160785   0.61769171  0.015584184            0   0.60210753    1.5161073     2.133799   -3.8094202 
19730000    1.0645033 9.5758034e-05   0.53845452  0.012891942            0   0.52556258    1.5767955      2.11525    7.0180614 
19735000    1.0228011 0.00015241478   0.64525773   0.04302393            0    0.6022338    1.5150241    2.1602818    9.9639188 
19740000    1.0517503 -4.7812832e-05   0.60501897  0.028343303            0   0.57667566    1.5579051    2.1629241  -0.28509288 
19745000    1.0292412 -3.7526545e-05   0.61444996  0.024882905            0   0.58956706    1.5245636    2.1390135   0.21765442 
19750000    1.0700261 7.0629475e-05   0.54943379  0.034702178            0   0.51473161    1.5849761    2.1344099     5.750639 
19755000    1.0802122 6.9512576e-05   0.53881748  0.013278884            0    0.5255386    1.6000644    2.1388819    5.6979258 
19760000    1.0581909 -9.7746287e-05   0.55508901  0.001112337            0   0.55397668    1.5674453    2.1225343   -2.8820756 
19765000    1.1116189 -0.00012431559   0.49007379  0.013536205            0   0.47653759    1.6465855    2.1366593   -4.2282989 
19770000    1.0886194 1.0684899e-05   0.56090822  0.018864559            0   0.54204366    1.6125175    2.1734257    2.7204926 
19775000    1.0422939 4.4437525e-06   0.64396851  0.024765256            0   0.61920326    1.5438978    2.1878663    2.4153864 
19780000    1.0890792 9.9146124e-06   0.59312195  0.022299211            0   0.57082274    1.6131986    2.2063205    2.7139487 
19785000    1.0974764 -9.8245221e-05    0.6006447 0.0056730583            0   0.59497164    1.6256369    2.2262817   -2.8038737 
19790000    1.1118555 -0.00010710671   0.60689352  0.020159038            0   0.58673448     1.646936    2.2538295   -3.2300341 
19795000     1.113272 4.8460482e-05   0.57750803  0.014942944            0   0.56256508    1.6490342    2.2265422    4.7077189 
19800000    1.1338335 1.3973441e-05   0.57020584  0.022678119            0   0.54752772    1.6794908    2.2496967    2.9651369 
19805000    1.0805455 -8.6659992e-05   0.63549107  0.087354199            0   0.54813687    1.6005581    2.2360491   -2.2009424 
19810000    1.0733666 -0.00015229824   0.65293995  0.046441401            0   0.60649855    1.5899243    2.2428643   -5.5548056 
19815000    1.0804163 -9.6785926e-05   0.64378145  0.043122448            0   0.60065901    1.6003667    2.2441481   -2.7112913 
19820000    1.1063377 -1.8838511e-05   0.57887415  0.024253771            0   0.55462038    1.6387627    2.2176369    1.2531051 
19825000    1.0574176 0.00011935709   0.64711613  0.023819833            0    0.6232963    1.5662998    2.2134159    8.3244988 
19830000    1.0167243 5.7915582e-05   0.68018664  0.040945745            0    0.6392409    1.5060228    2.1862095    5.1514873 
19835000    1.0836432 -6.0606836e-06   0.58610377  0.059046615            0   0.52705715    1.6051464    2.1912502    1.8809432 
19840000    1.0748377 2.0055997e-05   0.60580135  0.026565513            0   0.57923583    1.5921034    2.1979047    3.2247718 
19845000    1.0142109 -4.156921e-05   0.72264735  0.020973939            0   0.70167341    1.5022999    2.2249472  0.096603684 
19850000    1.0670767 -6.860345e-05   0.68641969  0.053390076            0   0.63302961    1.5806074     2.267027   -1.2454696 
19855000     1.091161 -8.9542961e-05   0.66152906  0.026330388            0   0.63519867    1.6162822    2.2778112   -2.3067884 
19860000    1.1192887 -5.354886e-05   0.64290136   0.01875224            0   0.62414912    1.6579463    2.3008477  -0.44085394 
19865000    1.0655454 -8.289621e-05   0.71595833  0.037478072            0   0.67848026    1.5783391    2.2942974   -1.9499885 
19870000    1.1278636 -1.4744858e-05   0.64723083  0.051042033            0    0.5961888     1.670648    2.3178788    1.5629421 
19875000      1.18164 0.00014134447    0.5892763   0.02791804            0   0.56135826    1.7503043    2.3395806    9.5764177 
19880000    1.1454676 9.5657456e-05   0.63043008  0.052959949            0   0.57747014    1.6967238    2.3271539    7.2248157 
19885000    1.1432639 0.00010490902   0.63506033   0.05843002            0   0.57663031    1.6934596      2.32852    7.6998618 
19890000    1.0968333 -3.4099078e-05   0.75138617  0.022083557            0   0.72930261    1.6246844    2.3760705   0.63019774 
19895000    1.1127678 -0.00018625211   0.71557773  0.014585325            0    0.7009924    1.6482873     2.363865   -7.1722429 
19900000    1.1500448 -3.9087675e-05   0.66370362  0.013162671            0   0.65054095    1.7035038    2.3672074   0.36591849 
19905000    1.1773921 6.572119e-05   0.64850401  0.015431163            0   0.63307285     1.744012     2.392516     5.757441 
19910000    1.2553306 -3.4612657e-05   0.49448039  0.010765509            0   0.48371489    1.8594584    2.3539388   0.58177074 
19915000     1.199611 4.9982958e-05    0.5797375  0.011514057            0   0.56822345    1.7769238    2.3566613    4.9157887 
19920000        1.117 0.00013999946   0.67355152  0.040432296            0   0.63311922    1.6545562    2.3281077    9.4960801 
19925000    1.1559653 -5.4783206e-06   0.60239795  0.075349178            0   0.52704877    1.7122736    2.3146715    2.0341815 
19930000     1.071432 -5.9610778e-05   0.68984177   0.05464422            0   0.63519755    1.5870586    2.2769004  -0.77517144 
19935000    1.1294287 -8.1087827e-05   0.63100854  0.024945838            0    0.6060627    1.6729663    2.3039749   -1.8477218 
19940000    1.0748786 -7.0449377e-05   0.68436486  0.048171442            0   0.63619342    1.5921639    2.2765288   -1.3304793 
19945000    1.0311715 5.4641721e-05   0.72545365    0.0451382            0   0.68031545    1.5274228    2.2528764    5.0505325 
19950000    1.0393508 0.00015128463   0.67964147  0.032997494            0   0.64664397    1.5395384    2.2191799    9.9649532 
19955000    1.0548338 0.00011347853   0.64349244  0.099489755            0   0.54400269    1.5624726    2.2059651    8.0160656 
19960000   0.98153758 2.2871163e-05   0.73565784  0.071263554            0   0.66439429    1.4539025    2.1895604     3.360564 
19965000    1.0344641 5.1926284e-05    0.6499613  0.021631425            0   0.62832987    1.5322999    2.1822612    4.8408869 
19970000    1.1221365 5.0122305e-05   0.53579833  0.026437851            0   0.50936048    1.6621646     2.197963     4.764225 
19975000    1.1090456 3.3814819e-05   0.54339147   0.06068757            0   0.48270391    1.6427738    2.1861653     3.917484 
19980000    1.0307236 -2.0739112e-06   0.63928579  0.026106131            0   0.61317966    1.5267594    2.1660452    2.0598609 
19985000    1.0005149 3.4871156e-05   0.68162773  0.013428054            0   0.66819968    1.4820127    2.1636404    3.9490436 
19990000    1.0869353 -0.00010508313   0.55356914  0.034381912            0   0.51918723    1.6100229     2.163592    -3.216664 
19995000    1.1360136 -1.3668916e-05   0.52169005  0.045854667            0   0.47583539    1.6827201    2.2044102    1.5045616 
20000000     1.147346 9.5370166e-06    0.4974979   0.06019905            0   0.43729885    1.6995062    2.1970041    2.6852994 
Loop time of 181.797 on 1 procs for 20000000 steps with 80 atoms

Performance: 95050.998 tau/day, 110012.729 timesteps/s
99.4% CPU use with 1 MPI tasks x no OpenMP threads

MPI task timing breakdown:
Section |  min time  |  avg time  |  max time  |%varavg| %total
---------------------------------------------------------------
Pair    | 8.2164     | 8.2164     | 8.2164     |   0.0 |  4.52
Bond    | 23.834     | 23.834     | 23.834     |   0.0 | 13.11
Neigh   | 20.406     | 20.406     | 20.406     |   0.0 | 11.22
Comm    | 50.656     | 50.656     | 50.656     |   0.0 | 27.86
Output  | 0.48756    | 0.48756    | 0.48756    |   0.0 |  0.27
Modify  | 71.197     | 71.197     | 71.197     |   0.0 | 39.16
Other   |            | 7          |            |       |  3.85

Nlocal:        80.0000 ave          80 max          80 min
Histogram: 1 0 0 0 0 0 0 0 0 0
Nghost:        0.00000 ave           0 max           0 min
Histogram: 1 0 0 0 0 0 0 0 0 0
Neighs:        33.0000 ave          33 max          33 min
Histogram: 1 0 0 0 0 0 0 0 0 0

Total # of neighbors = 33
Ave neighs/atom = 0.4125
Ave special neighs/atom = 5.8500000
Neighbor list builds = 3910
Dangerous builds = 0
write_restart restart.equil
System init for write_restart ...
WARNING: Communication cutoff 1.4200000000000002 is shorter than a bond length based estimate of 1.8. This may lead to errors. (../comm.cpp:667)
#--------------End of Input file ------------------
Total wall time: 0:03:01
