LAMMPS (29 Oct 2020)
###################### polyelectrolyte complexation ######################
clear

#Initialization
#------------------------------------
units				lj
dimension			3
atom_style			full
boundary			p p p

#Atom Definition
#-------------------------------------
read_data			data.complexation
Reading data file ...
  orthogonal box = (-80.000000 -80.000000 -80.000000) to (80.000000 80.000000 80.000000)
  1 by 1 by 1 MPI processor grid
  reading atoms ...
  120 atoms
  scanning bonds ...
  1 = max bonds/atom
  reading bonds ...
  119 bonds
Finding 1-2 1-3 1-4 neighbors ...
  special bond factors lj:    0.0      0.0      0.0     
  special bond factors coul:  0.0      0.0      0.0     
     2 = max # of 1-2 neighbors
     2 = max # of 1-3 neighbors
     4 = max # of 1-4 neighbors
     6 = max # of special neighbors
  special bonds CPU = 0.000 seconds
  read_data CPU = 0.002 seconds

#Force definition
#----------------------------------------------
#Bond definition
bond_style			harmonic
bond_coeff			1 5000 1
#Pair definition
special_bonds	lj 0 1 1
Finding 1-2 1-3 1-4 neighbors ...
  special bond factors lj:    0.0      1.0      1.0     
  special bond factors coul:  0.0      0.0      0.0     
     2 = max # of 1-2 neighbors
     2 = max # of 1-3 neighbors
     4 = max # of 1-4 neighbors
     6 = max # of special neighbors
  special bonds CPU = 0.000 seconds
pair_style		 lj/cut 1.12
pair_modify 		 shift yes
pair_coeff	1 1 1 1 1.12

#Timestep etc
#--------------------------------------------
timestep		1e-05
run_style		verlet
velocity		all	create	1	12

#Fix
#---------------------------------------
group polymers type 1
120 atoms in group polymers
fix 1 all nve
fix 2 all langevin 1	1	10	12
fix 3 polymers recenter INIT INIT INIT units box

#Dump
#------------------------------------------------
compute  1 all gyration
variable  myRg2 equal c_1
variable  i equal step
fix  mythermofile all print 5000 "$i ${myRg2}" file radius_of_gyration.dat screen no

thermo_style		 custom step temp press pe evdwl ecoul ebond ke etotal enthalpy
thermo 	5000
dump	3 all custom 5000 dump.lammpstrj id mol type xu yu zu
run		20000000
Neighbor list info ...
  update every 1 steps, delay 10 steps, check yes
  max neighbors/atom: 2000, page size: 100000
  master list distance cutoff = 1.42
  ghost atom cutoff = 1.42
  binsize = 0.71, bins = 226 226 226
  1 neighbor lists, perpetual/occasional/extra = 1 0 0
  (1) pair lj/cut, perpetual
      attributes: half, newton on
      pair build: half/bin/newton
      stencil: half/bin/3d/newton
      bin: standard
WARNING: Communication cutoff 1.4200000000000002 is shorter than a bond length based estimate of 1.8. This may lead to errors. (../comm.cpp:667)
Per MPI rank memory allocation (min/avg/max) = 54.72 | 54.72 | 54.72 Mbytes
Step Temp Press PotEng E_vdwl E_coul E_bond KinEng TotEng Enthalpy 
       0            1 2.9052734e-05            0            0            0            0       1.4875       1.4875    2.4791667 
    5000   0.78956937 -0.00049601833   0.32265709            0            0   0.32265709    1.1744844    1.4971415   -15.433618 
   10000   0.41092731 -0.0010751921   0.87822699            0            0   0.87822699   0.61125437    1.4894814   -35.210409 
   15000   0.70756039 -0.00047943937   0.44764178            0            0   0.44764178    1.0524961    1.5001379   -14.864726 
   20000   0.76769675 -0.00035830165   0.37112597            0            0   0.37112597    1.1419489    1.5130749   -10.716955 
   25000   0.55106971 -0.00088201541   0.71486481            0            0   0.71486481   0.81971619     1.534581   -28.571545 
   30000   0.72231103 -0.00056142284   0.46386481            0            0   0.46386481    1.0744377    1.5383025   -17.624931 
   35000   0.79494768 -0.0001619397    0.3357845            0            0    0.3357845    1.1824847    1.5182692   -4.0092726 
   40000   0.68008681 -0.0004116496   0.50248817            0            0   0.50248817    1.0116291    1.5141173   -12.536856 
   45000   0.58079534 -0.00080849802   0.64009372            0            0   0.64009372   0.86393308    1.5040268   -26.092705 
   50000   0.75654344 -0.00034130767   0.37688422            0            0   0.37688422    1.1253584    1.5022426   -10.147726 
   55000   0.74820942 -0.00021723147   0.37639649            0            0   0.37639649    1.1129615     1.489358   -5.9254763 
   60000   0.70593428 -0.00043627803   0.44962511            0            0   0.44962511    1.0500772    1.4997023   -13.391921 
   65000   0.75952877 -0.0004550424   0.36650806            0            0   0.36650806     1.129799    1.4963071   -14.035807 
   70000   0.82623442 -0.00015392815   0.27550218            0            0   0.27550218    1.2290237    1.5045259    -3.749555 
   75000   0.77577442 -0.00017431834   0.32200319            0            0   0.32200319    1.1539645    1.4759676   -4.4740983 
   80000    0.7668142 -0.0003710094    0.3301706            0            0    0.3301706    1.1406361    1.4708067   -11.192981 
   85000   0.77518701 -0.00016524695   0.32673803            0            0   0.32673803    1.1530907    1.4798287   -4.1606007 
   90000   0.80090723 4.4581445e-06   0.28302194            0            0   0.28302194    1.1913495    1.4743715    1.6265428 
   95000   0.81224938 -0.00023196063   0.27336758            0            0   0.27336758     1.208221    1.4815885   -6.4360011 
  100000   0.75879629 -0.00027710789   0.35809374            0            0   0.35809374    1.1287095    1.4868032   -7.9718128 
  105000   0.81351521 1.401203e-05   0.28961618            0            0   0.28961618    1.2101039      1.49972    1.9779973 
  110000   0.84425233 1.6838467e-05   0.22222743            0            0   0.22222743    1.2558253    1.4780528    2.0528058 
  115000   0.81043409 -0.00012826101   0.29830801            0            0   0.29830801    1.2055207    1.5038287   -2.8741472 
  120000   0.78445669 -4.6175487e-05   0.33502375            0            0   0.33502375    1.1668793    1.5019031 -0.074220191 
  125000   0.85521782 -8.7186641e-06   0.23303633            0            0   0.23303633    1.2721365    1.5051728    1.2075758 
  130000   0.80266004 -3.8408051e-05   0.32051526            0            0   0.32051526    1.1939568    1.5144721   0.20347726 
  135000   0.83769148 5.9358833e-05    0.2735061            0            0    0.2735061    1.2460661    1.5195722     3.545687 
  140000   0.83314006 -6.5446975e-05   0.30749569            0            0   0.30749569    1.2392958    1.5467915  -0.68713188 
  145000   0.79085513 -0.00018762279   0.36337595            0            0   0.36337595     1.176397     1.539773   -4.8644181 
  150000   0.85846771 0.00010468824   0.27118083            0            0   0.27118083    1.2769707    1.5481516    5.1215101 
  155000   0.86343056 4.8786043e-05   0.25510452            0            0   0.25510452     1.284353    1.5394575    3.2046878 
  160000   0.81217332 -0.00020913679   0.32111729            0            0   0.32111729    1.2081078    1.5292251   -5.6093105 
  165000   0.83735868 -4.7280135e-05   0.27560083            0            0   0.27560083     1.245571    1.5211719 -0.092656726 
  170000   0.82077487 6.4203185e-05    0.2939815            0            0    0.2939815    1.2209026    1.5148841    3.7063529 
  175000   0.79244502 -8.8618883e-05   0.32936005            0            0   0.32936005     1.178762     1.508122   -1.5167359 
  180000   0.81986011 -6.2605004e-07   0.28371505            0            0   0.28371505    1.2195419     1.503257    1.4818878 
  185000   0.82444603 -1.5063312e-05   0.27475916            0            0   0.27475916    1.2263635    1.5011226   0.98696157 
  190000   0.77829919 -1.2155886e-05   0.34859142            0            0   0.34859142    1.1577201    1.5063115    1.0913906 
  195000   0.84656031 5.2644256e-05   0.24964838            0            0   0.24964838    1.2592585    1.5089068    3.3058308 
  200000   0.79185499 4.2775934e-05   0.31417302            0            0   0.31417302    1.1778843    1.4920573    2.9521425 
  205000   0.78206928 -0.00017198371   0.35640055            0            0   0.35640055    1.1633281    1.5197286   -4.3506488 
  210000   0.82717413 -1.8557567e-05   0.31147328            0            0   0.31147328    1.2304215    1.5418948    0.9084632 
  215000   0.81461688 0.00021208633    0.3497673            0            0    0.3497673    1.2117426    1.5615099    8.8007233 
  220000   0.85762706 -0.00022626192   0.30107996            0            0   0.30107996    1.2757202    1.5768002   -6.1462733 
  225000   0.84571486 -2.7104061e-05   0.31523794            0            0   0.31523794    1.2580008    1.5732388   0.64808683 
  230000   0.87910428 0.00022470397   0.28901065            0            0   0.28901065    1.3076676    1.5966783    9.2665737 
  235000    0.8536065 -0.00019888591   0.36556153            0            0   0.36556153    1.2697397    1.6353012   -5.1533378 
  240000   0.85161154 -1.8723835e-05   0.35975699            0            0   0.35975699    1.2667722    1.6265292   0.98742226 
  245000   0.86794707 0.00013275995   0.32267664            0            0   0.32267664    1.2910713    1.6137479    6.1452877 
  250000   0.83656986 -0.00011640594   0.38638046            0            0   0.38638046    1.2443977    1.6307781   -2.3425446 
  255000   0.84032234 4.9355114e-05   0.36618907            0            0   0.36618907    1.2499795    1.6161685    3.3008231 
  260000   0.86997705 -0.00010351613   0.32063762            0            0   0.32063762    1.2940909    1.6147285    -1.918622 
  265000   0.81097618 0.00011936263   0.41736945            0            0   0.41736945    1.2063271    1.6236965    5.6979409 
  270000   0.88518133 6.7151955e-05   0.31956243            0            0   0.31956243    1.3167072    1.6362697    3.9283897 
  275000   0.83241503 -0.000195754   0.40883662            0            0   0.40883662    1.2382174     1.647054   -5.0346827 
  280000   0.84574928 9.3893821e-05   0.38754055            0            0   0.38754055     1.258052    1.6455926    4.8505017 
  285000   0.78594251 1.2743888e-05   0.48730682            0            0   0.48730682    1.1690895    1.6563963    2.0913877 
  290000   0.83506648 -8.480348e-05   0.39875352            0            0   0.39875352    1.2421614    1.6409149   -1.2537105 
  295000   0.82486554 -0.00011396626   0.40004782            0            0   0.40004782    1.2269875    1.6270353   -2.2630129 
  300000   0.81659919 0.00017997953   0.43043215            0            0   0.43043215    1.2146913    1.6451234    7.7884247 
  305000   0.86154575 -2.193861e-05   0.37258118            0            0   0.37258118    1.2815493    1.6541305   0.90529261 
  310000    0.8069635 -0.0002513693   0.45432049            0            0   0.45432049    1.2003582    1.6546787   -6.9253933 
  315000   0.86039798 0.00020583027   0.38278174 3.0595725e-05            0   0.38275115     1.279842    1.6626237     8.688297 
  320000   0.89907485 3.7454597e-06   0.34530555 0.00044838008            0   0.34485717    1.3373738    1.6826794    1.8105244 
  325000   0.89491707 -0.00024137691   0.33673882 0.00068087081            0   0.33605795    1.3311891     1.667928   -6.5710707 
  330000   0.88859084 0.0002503371   0.35462098 7.9405093e-05            0   0.35454157    1.3217789    1.6763998     10.22124 
  335000   0.85530728 -8.1371636e-05   0.39793933            0            0   0.39793933    1.2722696    1.6702089   -1.1072763 
  340000   0.81255623 -0.0001298211    0.4611023 3.7319128e-06            0   0.46109857    1.2086774    1.6697797   -2.7614472 
  345000   0.85196403  0.000226945   0.39237079 0.0010980007            0   0.39127279    1.2672965    1.6596673    9.4060565 
  350000   0.85819378 -5.0175949e-05   0.38954988 0.0013681835            0    0.3881817    1.2765632    1.6661131 -0.046559276 
  355000     0.859739 6.2920767e-05   0.37843475 0.00067127889            0   0.37776347    1.2788618    1.6572965     3.804992 
  360000   0.82778999 -0.00016121449   0.42168739 0.00016243672            0   0.42152496    1.2313376     1.653025   -3.8497628 
  365000   0.85040449 0.00012319159   0.39233398            0            0   0.39233398    1.2649767    1.6573107    5.8622502 
  370000   0.86007151 -3.0922079e-05   0.37939062            0            0   0.37939062    1.2793564     1.658747   0.60327337 
  375000   0.84057596 -4.4561654e-05   0.45154024            0            0   0.45154024    1.2503567     1.701897    0.1808592 
  380000   0.87671578 2.8055261e-05   0.40748114            0            0   0.40748114    1.3041147    1.7115959    2.6692154 
  385000   0.88320533 8.0534531e-06   0.39426577            0            0   0.39426577    1.3137679    1.7080337    1.9829249 
  390000   0.91455816 6.9390243e-06    0.3725958            0            0    0.3725958    1.3604053    1.7330011    1.9698531 
  395000   0.84554423 -6.5609224e-05   0.47753221            0            0   0.47753221     1.257747    1.7352793  -0.50418225 
  400000   0.90687425 6.300809e-05   0.39644992            0            0   0.39644992    1.3489754    1.7454254    3.8961015 
  405000   0.88383274 -0.0001236278   0.41174498            0            0   0.41174498    1.3147012    1.7264462   -2.4933828 
  410000   0.92850869 -1.9526537e-05   0.36497596            0            0   0.36497596    1.3811567    1.7461326    1.0796268 
  415000   0.89139936 0.00019480604   0.41393542            0            0   0.41393542    1.3259565     1.739892    8.3892716 
  420000    0.9058867 -0.00015180345   0.40845663            0            0   0.40845663    1.3475065    1.7559631   -3.4255945 
  425000   0.89666344 7.518058e-05   0.42024205            0            0   0.42024205    1.3337869    1.7540289    4.3201927 
  430000   0.87771319 -0.00010374074    0.4663349            0            0    0.4663349    1.3055984    1.7719333   -1.7690838 
  435000   0.86939006 4.9956182e-06   0.48142917            0            0   0.48142917    1.2932177    1.7746469     1.945164 
  440000   0.92335802 1.9538827e-06   0.39564208            0            0   0.39564208    1.3734951    1.7691371    1.8358297 
  445000   0.86457922 4.307647e-05   0.47947995            0            0   0.47947995    1.2860616    1.7655415     3.235885 
  450000   0.82233294 -0.0002245889   0.54985226            0            0   0.54985226    1.2232202    1.7730725   -5.8928954 
  455000   0.89869949 0.00012694376   0.44726509            0            0   0.44726509    1.3368155    1.7840806    6.1170943 
  460000   0.90084211 -7.4436215e-05    0.4545519            0            0    0.4545519    1.3400026    1.7945545   -0.7462016 
  465000   0.91455149 4.8963761e-06   0.45162413            0            0   0.45162413    1.3603953    1.8120195    1.9791491 
  470000   0.90153973 -3.3346621e-05   0.46929611            0            0   0.46929611    1.3410403    1.8103365   0.67210514 
  475000   0.95637887 -1.2425682e-05   0.41035612            0            0   0.41035612    1.4226136    1.8329697    1.4088397 
  480000   0.91020352 -0.00010437725   0.47913916            0            0   0.47913916    1.3539277    1.8330669   -1.7296764 
  485000   0.94060349 0.00010395298   0.43013528            0            0   0.43013528    1.3991477     1.829283    5.3775447 
  490000    0.9372034 -0.0001111927   0.44578067            0            0   0.44578067    1.3940901    1.8398707   -1.9555068 
  495000   0.95250812 0.00014678963   0.44560731            0            0   0.44560731    1.4168558    1.8624631    6.8728825 
  500000   0.96585085 -0.00011799184   0.42910061 3.8720765e-05            0   0.42906189    1.4367031    1.8658037   -2.1616509 
  505000   0.96610284 -3.2925014e-06   0.43473194 0.00018795835            0   0.43454398     1.437078    1.8718099    1.7594259 
  510000   0.90093459 4.3496992e-06   0.53822182 0.00027387339            0   0.53794795    1.3401402     1.878362    2.0268318 
  515000    1.0144249 -3.3012481e-05   0.38415146 3.4577653e-05            0   0.38411688    1.5089571    1.8931086   0.76628253 
  520000   0.99242338 3.1952682e-05   0.39897257 3.9679239e-06            0    0.3989686    1.4762298    1.8752024    2.9658539 
  525000     1.045485 3.2571131e-05   0.33370673            0            0   0.33370673     1.555159    1.8888657     3.000627 
  530000     1.022655 -3.4966522e-05    0.3815369            0            0    0.3815369    1.5211992    1.9027361   0.70921219 
  535000   0.97006982 -3.0672987e-05   0.44039638            0            0   0.44039638    1.4429789    1.8833752   0.83640393 
  540000   0.97239942 -5.777917e-05   0.42910983            0            0   0.42910983    1.4464441     1.875554  -0.09664172 
  545000   0.94703188 -8.5111002e-05   0.45583745            0            0   0.45583745    1.4087099    1.8645474   -1.0405748 
  550000    0.9783085 0.00029502939   0.42285515            0            0   0.42285515    1.4552339     1.878089    11.948425 
  555000   0.96471038 -0.0002626184   0.45152228 0.00050918995            0   0.45101309    1.4350067     1.886529   -7.0775123 
  560000   0.93617342 8.9591269e-05   0.48571701 0.0042190348            0   0.48149798     1.392558     1.878275    4.9363236 
  565000   0.94496371 -5.033073e-05   0.45320026 0.0060293839            0   0.44717088    1.4056335    1.8588338   0.14087821 
  570000   0.91852914 -1.3304036e-05   0.49670711 0.0019712319            0   0.49473588    1.3663121    1.8630192    1.4089081 
  575000   0.92353018 0.00012883629   0.49122161            0            0   0.49122161    1.3737511    1.8649728    6.2625847 
  580000   0.96579104 -0.00015828141   0.43046676            0            0   0.43046676    1.4366142    1.8670809   -3.5355913 
  585000   0.95587946 7.2283415e-06   0.45293664            0            0   0.45293664    1.4218707    1.8748073    2.1215347 
  590000   0.96973315 -2.9249266e-06   0.44466175            0            0   0.44466175    1.4424781    1.8871398    1.7873023 
  595000    1.0006822 -5.6567204e-05   0.42864864            0            0   0.42864864    1.4885148    1.9171634 -0.013663781 
  600000   0.98286576 1.8586756e-06   0.45656995            0            0   0.45656995    1.4620128    1.9185828    1.9820256 
  605000    0.9983508 7.6470607e-05   0.44984116            0            0   0.44984116    1.4850468     1.934888    4.5450847 
  610000    1.0004253 -5.6610247e-06   0.43684377            0            0   0.43684377    1.4881326    1.9249764    1.7317468 
  615000   0.95633568 -3.1924282e-05    0.4968849            0            0    0.4968849    1.4225493    1.9194342   0.82975205 
  620000   0.97245616 -0.00012670243   0.47260503            0            0   0.47260503    1.4465285    1.9191336   -2.4056426 
  625000   0.96480668 0.00012043068   0.47625718            0            0   0.47625718    1.4351499    1.9114071    6.0221076 
  630000   0.91984874 -0.00013969213   0.52330169            0            0   0.52330169     1.368275    1.8915767   -2.8765814 
  635000   0.97473024 0.00011774268   0.46550764            0            0   0.46550764    1.4499112    1.9154189    5.9343689 
  640000   0.98484885 -5.1563308e-05   0.42849642            0            0   0.42849642    1.4649627    1.8934591    0.1334315 
  645000   0.89706551 0.0001207608   0.53228128            0            0   0.53228128    1.3343849    1.8666662    5.9886349 
  650000   0.97186899 5.2548653e-05   0.43197461            0            0   0.43197461    1.4456551    1.8776297    3.6712904 
  655000   0.93155352 9.1924274e-05   0.48528938            0            0   0.48528938    1.3856859    1.8709752    5.0086571 
  660000   0.98789086 -0.00019112467   0.41236829 0.00036432083            0   0.41200397    1.4694876    1.8818559    -4.641866 
  665000    1.0077658 7.4548123e-05   0.37084697 0.00047796055            0   0.37036901    1.4990517    1.8698986    4.4144746 
  670000   0.98290104 -1.3792903e-05   0.42799732 4.182135e-05            0    0.4279555    1.4620653    1.8900626    1.4192649 
  675000   0.97222629 -0.00014000616    0.4433886 0.00073672623            0   0.44265187    1.4461866    1.8895752   -2.8893019 
  680000   0.99695495 1.9201378e-05   0.41617247 0.0039296766            0   0.41224279    1.4829705     1.899143      2.55455 
  685000    0.9660315 -2.6808467e-05   0.45655751 0.0042790604            0   0.45227845    1.4369719    1.8935294   0.97846704 
  690000   0.96385885 8.9560388e-05   0.44677346 0.0014194041            0   0.44535405      1.43374    1.8805135    4.9375081 
  695000   0.93672494 -0.00015280072    0.5048851            0            0    0.5048851    1.3933783    1.8982635   -3.3173344 
  700000   0.97859022 0.00016621464   0.44400348            0            0   0.44400348     1.455653    1.8996564     7.573116 
  705000    0.9715631 -6.8387195e-05    0.4341256            0            0    0.4341256    1.4452001    1.8793257  -0.45495722 
  710000     0.967513 9.6948625e-05   0.42045321            0            0   0.42045321    1.4391756    1.8596288    5.1688085 
  715000   0.94395338 -4.2958201e-05   0.45283456 3.6621502e-06            0    0.4528309    1.4041307    1.8569652   0.39065862 
  720000   0.94953654 -0.00016620395   0.43595435 2.3204688e-05            0   0.43593115    1.4124356      1.84839   -3.8247049 
  725000   0.91402108 0.00012703264   0.51008264 3.6426963e-06            0     0.510079    1.3596064     1.869689    6.2057364 
  730000   0.93218706 -0.0001946231   0.47095237            0            0   0.47095237    1.3866282    1.8575806   -4.7855545 
  735000   0.93733265 5.0411793e-05   0.44539602            0            0   0.44539602    1.3942823    1.8396783    3.5604009 
  740000   0.94027772 0.00012416335   0.44774711            0            0   0.44774711    1.3986631    1.8464102    6.0845193 
  745000   0.95168829 -0.00021935971   0.43295522            0            0   0.43295522    1.4156363    1.8485916   -5.6388865 
  750000   0.97200473 -1.2479689e-05   0.41184385            0            0   0.41184385     1.445857    1.8577009    1.4317275 
  755000   0.91421253 5.905577e-05    0.5115428            0            0    0.5115428    1.3598911    1.8714339    3.8872042 
  760000   0.94408609 -3.1172271e-05   0.42860161 0.00058557841            0   0.42801604    1.4043281    1.8329297   0.76891616 
  765000   0.89786957 -8.836622e-05   0.48808842 0.0043283594            0   0.48376006     1.335581    1.8236694   -1.1925642 
  770000   0.91508605 -5.6864817e-05   0.47772098 0.0041048988            0   0.47361608    1.3611905    1.8389115  -0.10207428 
  775000   0.91749882 0.0001153822   0.47939494 0.0019266874            0   0.47746825    1.3647795    1.8441744    5.7825536 
  780000   0.92823649 -9.2678643e-05   0.46256105 0.0049471222            0   0.45761393    1.3807518    1.8433128   -1.3201182 
  785000   0.91629898 -0.00010466172   0.50711437  0.005950485            0   0.50116389    1.3629947    1.8701091   -1.7023443 
  790000   0.91552527 7.0634823e-05   0.51893118 0.00071477808            0    0.5182164    1.3618438     1.880775     4.291777 
  795000   0.91588562 -8.4093641e-06   0.50986601            0            0   0.50986601    1.3623799    1.8722459    1.5852062 
  800000   0.93553316 0.00010492638   0.43414824 0.00059096114            0   0.43355728    1.3916056    1.8257538    5.4072408 
  805000   0.90066196 -0.00012573834   0.46807077 0.0019839484            0   0.46608683    1.3397347    1.8078054   -2.4840633 
  810000   0.91486487 4.7113753e-05   0.47304678 0.0021950159            0   0.47085176    1.3608615    1.8339083    3.4420577 
  815000   0.95036508 4.8471566e-05   0.43090626 0.0023511422            0   0.42855512    1.4136681    1.8445743    3.4990704 
  820000   0.93422246 -7.7859084e-05   0.42976743 0.0039762788            0   0.42579115    1.3896559    1.8194233  -0.83816672 
  825000   0.96882745 -0.00010457401   0.37202001 0.0023952575            0   0.36962475    1.4411308    1.8131508   -1.7563088 
  830000    0.9185842 -7.5442045e-05   0.42926965 0.00018493649            0   0.42908471     1.366394    1.7956637   -0.7794248 
  835000   0.94588228 -0.00011154635   0.40647508            0            0   0.40647508    1.4069999     1.813475   -1.9939737 
  840000   0.97292753 -0.00012689159   0.39425844            0            0   0.39425844    1.4472297    1.8414881    -2.489745 
  845000   0.92246037 -7.1276084e-10   0.43870011 9.8052224e-06            0    0.4386903    1.3721598    1.8108599    1.8108356 
  850000   0.89178961 3.7680223e-05   0.48528223 0.0039078707            0   0.48137436     1.326537    1.8118193    3.0979709 
  855000   0.88060602 9.2417817e-05   0.49672812 0.0098464521            0   0.48688167    1.3099014    1.8066296    4.9611577 
  860000   0.89779767 -8.1614765e-05   0.47382809 0.0047134366            0   0.46911465     1.335474    1.8093021  -0.97648185 
  865000   0.87745471 -0.00013005231   0.49237438 0.00039312179            0   0.49198126    1.3052139    1.7975883   -2.6415305 
  870000   0.93831161 -1.1984631e-05   0.39672797 4.3263344e-05            0   0.39668471    1.3957385    1.7924665    1.3833911 
  875000   0.88810237 -3.6767689e-05   0.46821587 0.00027274957            0   0.46794312    1.3210523    1.7892682   0.53426436 
  880000   0.90139456 8.1258682e-05   0.44438451 0.0005667957            0   0.44381771    1.3408244    1.7852089    4.5588386 
  885000   0.89680423 4.4892575e-05   0.43957211 0.00050831354            0   0.43906379    1.3339963    1.7735684    3.3059016 
  890000   0.90760137 -0.00011949252   0.43567217 0.00035583943            0   0.43531633     1.350057    1.7857292   -2.2929489 
  895000   0.84621709 7.7021171e-05   0.49982072 0.00010437424            0   0.49971634    1.2587479    1.7585686     4.387558 
  900000   0.83502183 1.529224e-06   0.50320075            0            0   0.50320075     1.242095    1.7452957    1.7974932 
  905000     0.847731 -5.7860554e-05   0.48726255            0            0   0.48726255    1.2609999    1.7482624  -0.22671116 
  910000   0.87762536 5.2227445e-05   0.44901622            0            0   0.44901622    1.3054677    1.7544839    3.5371808 
  915000   0.89083232 -0.00014228308   0.42092413 1.3787212e-06            0   0.42092275    1.3251131    1.7460372   -3.1105585 
  920000   0.88907543 9.2590527e-05   0.44643131 0.0004769134            0   0.44595439    1.3224997     1.768931    4.9293543 
  925000   0.88835994 5.9978571e-05   0.44044412 0.0025109306            0   0.43793319    1.3214354    1.7618795    3.8091481 
  930000   0.87507478 4.7001071e-05   0.44618487 0.0044231326            0   0.44176174    1.3016737    1.7478586    3.3521618 
  935000   0.83754983 -8.991361e-05   0.50845895 0.0023990685            0   0.50605988    1.2458554    1.7543143   -1.3147369 
  940000   0.88056009 6.4885441e-05   0.43795272 0.0015866757            0   0.43636605    1.3098331    1.7477859    3.9625422 
  945000   0.84935951 -8.1238075e-05   0.50787144  0.001835138            0    0.5060363    1.2634223    1.7712937   -1.0016326 
  950000   0.90072926 0.00020076947   0.43693572 0.0015459998            0   0.43538972    1.3398348    1.7767705    8.6297016 
  955000    0.8594982 -5.182575e-05   0.50923674 0.0036420958            0   0.50559464    1.2785036    1.7877403  0.018754716 
  960000   0.86052808 8.1746521e-05   0.49592844 0.0040121343            0   0.49191631    1.2800355     1.775964    4.5662452 
  965000   0.89667994 3.5956973e-05   0.44178222 0.0015362702            0   0.44024595    1.3338114    1.7755936     3.002925 
  970000   0.88302932 7.9899207e-05    0.4671916 0.0029583631            0   0.46423323    1.3135061    1.7806977     4.507924 
  975000   0.86754101 -8.219592e-05   0.50391172 0.0043253705            0   0.49958635    1.2904673     1.794379   -1.0112418 
  980000   0.84635419 0.00010141594   0.52329603 0.0050631887            0   0.51823284    1.2589519    1.7822479    5.2439121 
  985000   0.91254456 1.1124787e-05   0.43021657  0.006890851            0   0.42332571      1.35741    1.7876266    2.1673526 
  990000   0.91959208 -8.1455579e-05   0.43549237 0.0068873695            0     0.428605    1.3678932    1.8033856  -0.97696482 
  995000   0.90755201 8.9614726e-05   0.46307209  0.007421463            0   0.45565063    1.3499836    1.8130557     4.871905 
 1000000   0.90921556 -1.8325178e-05   0.45559876 0.0093876867            0   0.44621107    1.3524581    1.8080569    1.1825575 
 1005000   0.89519404 9.4707448e-05    0.5050954   0.02138733            0   0.48370807    1.3316011    1.8366965    5.0693774 
 1010000   0.94842305 -5.6413014e-05   0.44760096  0.014966289            0   0.43263467    1.4107793    1.8583803 -0.067183955 
 1015000   0.90650619 3.9886619e-05   0.51373311  0.010763507            0    0.5029696     1.348428    1.8621611    3.2236243 
 1020000    0.8868647 -7.6194112e-05   0.54072772 0.0044991841            0   0.53622854    1.3192112     1.859939  -0.74082006 
 1025000   0.94639885 2.7758513e-05   0.46283338 0.00058859049            0   0.46224479    1.4077683    1.8706017    2.8180923 
 1030000   0.92341858 -7.3758508e-05   0.48365696 0.0021269989            0   0.48152996    1.3735851    1.8572421  -0.66038164 
 1035000   0.90551028 -2.7101178e-05   0.48907642 0.0035746135            0    0.4855018    1.3469465     1.836023   0.91096941 
 1040000   0.89622062 2.5220629e-05   0.50283157 0.0023535333            0   0.50047804    1.3331282    1.8359597    2.6968239 
 1045000   0.88917597 -0.00013807186   0.51916421 0.0014355405            0   0.51772867    1.3226493    1.8418135   -2.8710394 
 1050000   0.88721954 6.0638077e-06   0.52901175 0.00076764046            0   0.52824411    1.3197391    1.8487508    2.0557288 
 1055000   0.91632972 -2.0335437e-05   0.50394488 0.00024426086            0   0.50370061    1.3630405    1.8669853    1.1728691 
 1060000   0.88230719 -4.9606538e-05   0.54676148 6.7905701e-05            0   0.54669358    1.3124319    1.8591934   0.16595692 
 1065000   0.89943257 -9.3663757e-06   0.52274676            0            0   0.52274676     1.337906    1.8606527    1.5409471 
 1070000   0.89763055 0.00012252362   0.52227452            0            0   0.52227452    1.3352254       1.8575    6.0396396 
 1075000   0.94958931 -6.4191979e-05   0.43835402            0            0   0.43835402    1.4125141    1.8508681  -0.34021809 
 1080000   0.89234568 0.00013010175   0.52253359 0.00031560919            0   0.52221798    1.3273642    1.8498978    6.2907043 
 1085000   0.90634553 1.108929e-05   0.49624087 0.0053117116            0   0.49092916     1.348189    1.8444298    2.2229443 
 1090000   0.89862018 -7.0505266e-05   0.49310083 0.0084302959            0   0.48467053    1.3366975    1.8297983   -0.5767814 
 1095000   0.94543042 3.929846e-05   0.43996598 0.0024173271            0   0.43754865    1.4063277    1.8462937    3.1876812 
 1100000   0.89366722 -5.1468931e-05    0.5257623 0.00032594833            0   0.52543635      1.32933    1.8550923  0.098286113 
 1105000   0.91955174 -4.9244277e-05   0.48592833 6.2215594e-05            0   0.48586611    1.3678332    1.8537615   0.17289023 
 1110000   0.93756836 -0.00012980684   0.45816434  0.000325628            0   0.45783871    1.3946329    1.8527973   -2.5779428 
 1115000    0.8985642 -0.00017672047   0.51898914 0.0070613758            0   0.51192777    1.3366143    1.8556034   -4.1764552 
 1120000   0.90569199 0.00017894224   0.49098918  0.010072826            0   0.48091635    1.3472168     1.838206    7.9461013 
 1125000   0.86102218 0.00016781626   0.53727595 0.0018709222            0   0.53540503    1.2807705    1.8180464    7.5461746 
 1130000    0.8748197 -6.3819897e-05   0.52212253 0.0056686353            0    0.5164539    1.3012943    1.8234168  -0.35496898 
 1135000   0.90422393 -3.0605944e-05   0.47669811  0.024858879            0   0.45183923    1.3450331    1.8217312   0.77704829 
 1140000    0.9280613 -2.4898024e-05   0.44607218 0.0045278894            0   0.44154429    1.3804912    1.8265634   0.97671081 
 1145000   0.88409305 0.0001529515   0.52723505 0.00053521325            0   0.52669983    1.3150884    1.8423235    7.0630681 
 1150000   0.87413597 1.5892265e-05   0.55957521 0.0047099379            0   0.55486527    1.3002773    1.8598525    2.4023085 
 1155000   0.94267629 7.7492201e-05   0.47514574  0.010505485            0   0.46464025     1.402231    1.8773767    4.5224439 
 1160000   0.89948815 -3.6942582e-05   0.54910486    0.0189228            0   0.53018206    1.3379886    1.8870935   0.62612002 
 1165000   0.94098441 -5.742332e-05   0.49156767 0.0068861628            0   0.48468151    1.3997143     1.891282  -0.06876736 
 1170000   0.93118324 -3.4524116e-05   0.51956312 0.0016290963            0   0.51793402    1.3851351    1.9046982   0.72627502 
 1175000   0.95243275 7.8031573e-05   0.49405438  0.002030703            0   0.49202367    1.4167437    1.9107981    4.5742758 
 1180000   0.95357587 0.00011656455   0.46372394  0.006119371            0   0.45760457    1.4184441    1.8821681    5.8609047 
 1185000   0.96372302 -7.6695587e-05   0.44566743 0.0036332144            0   0.44203422     1.433538    1.8792054  -0.73867061 
 1190000   0.92273697 -2.572221e-05   0.53435231 0.0001672303            0   0.53418508    1.3725712    1.9069236    1.0289388 
 1195000   0.94320244 2.4341595e-05   0.49611771  0.000604446            0   0.49551326    1.4030136    1.8991313    2.7299911 
 1200000   0.99060692 -6.9936552e-05   0.45499674 0.0013785813            0   0.45361816    1.4735278    1.9285245  -0.45864308 
 1205000    1.0223514 -2.5364189e-05   0.40601649 0.0022334444            0   0.40378304    1.5207477    1.9267642    1.0609999 
 1210000   0.97570348 8.4361741e-05   0.49273709 0.0078351914            0   0.48490189    1.4513589     1.944096    4.8236434 
 1215000   0.99607228 -0.0001943838   0.48870812  0.010008415            0    0.4786997    1.4816575    1.9703656   -4.6646015 
 1220000   0.94043096 -0.00018484422   0.55419223  0.018961579            0   0.53523065    1.3988911    1.9530833   -4.3562661 
 1225000   0.97226396 -1.7992498e-05   0.51072191  0.011396644            0   0.49932527    1.4462426    1.9569646    1.3428206 
 1230000   0.94837551 -0.00019997743   0.56093379  0.017097799            0   0.54383599    1.4107086    1.9716424    -4.854254 
 1235000     0.975645 1.6365537e-06   0.52367929 0.0087212029            0   0.51495809    1.4512719    1.9749512    2.0308123 
 1240000   0.96904597 -0.00016900363    0.5178274 0.0039301168            0   0.51389728    1.4414559    1.9592833   -3.8093739 
 1245000   0.94169355 -4.1421978e-05   0.59762098 0.00067519285            0   0.59694579    1.4007692    1.9983901   0.58451994 
 1250000   0.90845096 -0.00022340309   0.61152426 0.0012618585            0    0.6102624    1.3513208    1.9628451   -5.6626471 
 1255000   0.94029921 0.00012105048   0.56650797 0.0068392979            0   0.55966867    1.3986951     1.965203    6.0970596 
 1260000   0.92069681 1.8996718e-06   0.56248667  0.021653653            0   0.54083302    1.3695365    1.9320232    1.9968653 
 1265000   0.92539888 0.00020554968   0.56292066  0.018203856            0    0.5447168    1.3765308    1.9394515    8.9555473 
 1270000   0.95886649 8.8835187e-06    0.4988378 0.0090553495            0   0.48978245    1.4263139    1.9251517    2.2283758 
 1275000   0.91084312 -0.00015176788   0.56916579 0.0023386433            0   0.56682714    1.3548791    1.9240449   -3.2562986 
 1280000   0.98652205 7.7516899e-05   0.45815124 0.0026625748            0   0.45548867    1.4674515    1.9256028    4.5715129 
 1285000   0.94962451 3.1271001e-05   0.52949668 0.0053623772            0    0.5241343    1.4125665    1.9420631    3.0094466 
 1290000   0.93471191 -3.6694371e-05   0.55075539  0.012019258            0   0.53873613     1.390384    1.9411394   0.68863815 
 1295000   0.99611914 0.00010288129   0.48447802  0.018034425            0   0.46644359    1.4817272    1.9662052    5.4778866 
 1300000   0.98146141 -0.00012466741   0.51278853 0.0064214302            0    0.5063671    1.4599238    1.9727124   -2.2826019 
 1305000   0.99543622 -1.18746e-05   0.47640756 0.0020994528            0    0.4743081    1.4807114    1.9571189    1.5517992 
 1310000    1.0320663 0.00021183808   0.43715192  0.012967074            0   0.42418485    1.5351987    1.9723506    9.2030906 
 1315000   0.94756151 -2.4141751e-06   0.55769817  0.008186138            0   0.54951203    1.4094977    1.9671959    1.8847921 
 1320000   0.97969457 -7.0161526e-05   0.49720667  0.017220654            0   0.47998601    1.4572957    1.9545023  -0.44034441 
 1325000   0.97207601 -7.7807132e-05    0.4930295 0.0034885142            0   0.48954099    1.4459631    1.9389926   -0.7168242 
 1330000    1.0155179 -0.00016950931   0.44412974 8.9348472e-06            0    0.4441208    1.5105828    1.9547126   -3.8312051 
 1335000   0.95222544 8.8364557e-05   0.53605152 0.00043549905            0   0.53561602    1.4164353    1.9524869    4.9686638 
 1340000    1.0432807 -9.3127844e-05   0.38395324 0.00090067299            0   0.38305256    1.5518801    1.9358333   -1.2429304 
 1345000   0.98785688 4.661823e-05   0.45653093 0.0015015796            0   0.45502935    1.4694371     1.925968    3.5172036 
 1350000   0.95221681 -0.00010784831   0.50663206 0.0021168253            0   0.50451523    1.4164225    1.9230546   -1.7581677 
 1355000   0.94207256 -6.0620818e-05   0.51180036 0.0066570562            0   0.50514331    1.4013329    1.9131333  -0.15605729 
 1360000   0.97711168 0.00012337168   0.44094457 0.0060202747            0    0.4349243    1.4534536    1.8943982    6.1054848 
 1365000   0.96431425 0.00016304462   0.46743024  0.014298728            0   0.45313151    1.4344174    1.9018477    7.4671041 
 1370000   0.94368477 -8.303018e-05    0.5166332  0.015380277            0   0.50125292    1.4037311    1.9203643  -0.91373251 
 1375000   0.91676198 -3.3034477e-05    0.5364932 0.0022772863            0   0.53421592    1.3636834    1.9001766   0.77259982 
 1380000   0.91930125 3.5001933e-05   0.52943807  0.006421834            0   0.52301624    1.3674606    1.8968987    3.0916313 
 1385000   0.95023034 -9.6073945e-05    0.4933556 0.0084564435            0   0.48489915    1.4134676    1.9068232   -1.3725008 
 1390000   0.93533267 -0.00015075167   0.53232554 0.0083204994            0   0.52400504    1.3913073    1.9236329   -3.2220242 
 1395000    0.9992745 -1.3166627e-05   0.43719987 0.0086316697            0    0.4285682    1.4864208    1.9236207    1.4741998 
 1400000   0.96138209 5.3949128e-05   0.49902511  0.019165002            0   0.47986011    1.4300559     1.929081    3.7705445 
 1405000   0.90698939 7.5706218e-06   0.59263577  0.047399701            0   0.54523607    1.3491467    1.9417825     2.200193 
 1410000   0.85453722 -1.5305474e-05   0.66815112  0.041192036            0   0.62695908    1.2711241    1.9392752    1.4168484 
 1415000   0.90736414 -5.1771133e-05    0.5376689  0.025838269            0   0.51183063    1.3497042    1.8873731   0.12025172 
 1420000   0.88899047 -0.00011058411   0.55791706 0.0038041451            0   0.55411292    1.3223733    1.8802904   -1.8943139 
 1425000   0.92199753 2.4018465e-05   0.50484534 0.0047765532            0   0.50006879    1.3714713    1.8763167    2.6961469 
 1430000   0.94438875 -7.6541659e-05   0.49833488  0.012136079            0    0.4861988    1.4047783    1.9031131  -0.70950882 
 1435000   0.92857579 -1.1234235e-05   0.54095273  0.014214587            0   0.52673815    1.3812565    1.9222092    1.5387473 
 1440000   0.90888732 -9.5925642e-05   0.57896518 0.0039175981            0   0.57504758    1.3519699    1.9309351   -1.3433269 
 1445000   0.99192216 6.6278113e-05   0.45556743 0.0044509616            0   0.45111647    1.4754842    1.9310516    4.1933446 
 1450000    1.0009924 -0.00011058769   0.45781217 0.00097066269            0    0.4568415    1.4889762    1.9467883   -1.8279382 
 1455000   0.97559178 7.2034526e-05   0.49883431 0.00040966895            0   0.49842464    1.4511928    1.9500271    4.4088056 
 1460000   0.96295796 -3.8335601e-05   0.51004209 0.0097283346            0   0.50031375       1.4324    1.9424421   0.63392022 
 1465000   0.93445501 -3.765173e-06   0.53463279  0.025239639            0   0.50939315    1.3900018    1.9246346    1.7961167 
 1470000    0.9575399 -3.058555e-05   0.49531724 0.0036115145            0   0.49170573    1.4243406    1.9196578   0.87567107 
 1475000   0.89669852 -0.00013079272   0.55810416 0.0032628097            0   0.55484136     1.333839    1.8919432   -2.5724482 
 1480000   0.93454215 -9.9063628e-05   0.48949547 0.0090818936            0   0.48041358    1.3901314    1.8796269   -1.5017449 
 1485000   0.85079378 6.0150006e-05    0.5892061  0.055674389            0   0.53353171    1.2655558    1.8547619     3.907882 
 1490000    0.9097046 -4.2503539e-05   0.51242686  0.012089025            0   0.50033784    1.3531856    1.8656125     0.414825 
 1495000   0.89561976 -0.00011758879   0.53644597 0.0015092975            0   0.53493667    1.3322344    1.8686804   -2.1450171 
 1500000   0.92048582 -4.1101031e-06   0.51831933 0.0075098661            0   0.51080946    1.3692227     1.887542    1.7472505 
 1505000   0.97110546 -2.4710224e-05   0.42734473  0.015075428            0    0.4122693    1.4445194    1.8718641    1.0284218 
 1510000    0.9678853 -5.9697677e-05   0.43699451  0.017667003            0   0.41932751    1.4397294    1.8767239  -0.16095683 
 1515000    1.0127559 -3.3464881e-05   0.37078007  0.010285775            0    0.3604943    1.5064744    1.8772544    0.7349865 
 1520000     0.929991 6.0667277e-05   0.48304383  0.013378456            0   0.46966538    1.3833616    1.8664055    3.9371818 
 1525000    0.9489393 -1.5039156e-05   0.45438998 0.0069411826            0    0.4474488    1.4115472    1.8659372    1.3526007 
 1530000   0.91530136 5.010269e-05   0.50682592 0.00057235028            0   0.50625357    1.3615108    1.8683367    3.5785085 
 1535000   0.93569597 -6.3824051e-06   0.46477734  0.002541488            0   0.46223586    1.3918477    1.8566251    1.6387723 
 1540000   0.88490701 0.00017571008   0.53450931 0.0030800894            0   0.53142922    1.3162992    1.8508085    7.8483792 
 1545000   0.87548242 -0.00016668327   0.54994539  0.015356364            0   0.53458902    1.3022801    1.8522255   -3.8372302 
 1550000    0.9378453 9.5991861e-05   0.45508231  0.019364488            0   0.43571782    1.3950449    1.8501272    5.1266494 
 1555000   0.93957018 5.1047797e-05   0.44981535 0.0057926444            0    0.4440227    1.3976106     1.847426    3.5898574 
 1560000   0.94502465 -4.442154e-05   0.44861024 0.0035474804            0   0.44506276    1.4057242    1.8543344   0.33807918 
 1565000   0.88962971 -0.00012200126   0.53880447  0.027984023            0   0.51082045    1.3233242    1.8621287   -2.3021809 
 1570000   0.93850203 -3.7728862e-05   0.47306268  0.020188346            0   0.45287434    1.3960218    1.8690845   0.58127262 
 1575000   0.98684504 -0.00014197501   0.41886009  0.008383315            0   0.41047678     1.467932    1.8867921   -2.9592883 
 1580000   0.98250196 -3.2215204e-05   0.45112649 0.0095150686            0   0.44161142    1.4614717    1.9125982   0.81298586 
 1585000   0.92658985 5.9140654e-05   0.53314245 0.0042575753            0   0.52888487    1.3783024    1.9114449    3.9301125 
 1590000   0.95688535 0.00013257151   0.50708958  0.010681206            0   0.49640838     1.423367    1.9304565    6.4555642 
 1595000   0.94572015 -0.00015276438   0.52778036 0.0036001743            0   0.52418019    1.4067587    1.9345391   -3.2798183 
 1600000    1.0047825 1.8956877e-05   0.46599638 0.00013574935            0   0.46586063     1.494614    1.9606104    2.6076718 
 1605000    1.0230894 6.5045263e-05   0.42303374 0.00016517941            0   0.42286856    1.5218455    1.9448792    4.1650908 
 1610000   0.96302654 4.8922335e-05   0.48911651 0.0026020452            0   0.48651447     1.432502    1.9216185    3.5915009 
 1615000   0.97520395 6.5442683e-05   0.47582403  0.010812854            0   0.46501117    1.4506159    1.9264399    4.1602168 
 1620000    1.0012357 6.903422e-05   0.43808958 0.0083827411            0   0.42970684    1.4893382    1.9274277    4.2837958 
 1625000   0.98395395 -0.00016193975   0.45386139 0.0059734907            0    0.4478879    1.4636315    1.9174929   -3.6100507 
 1630000   0.93511334 5.1123393e-05   0.49732239 0.0046490886            0    0.4926733    1.3909811    1.8883035    3.6333153 
 1635000   0.94681178 -9.9920991e-05   0.49641433  0.014374689            0   0.48203964    1.4083825    1.9047968   -1.5058396 
 1640000   0.91537117 -7.0677417e-05   0.53862064  0.031170198            0   0.50745044    1.3616146    1.9002353  -0.51222057 
 1645000   0.91560007 -0.0001379126    0.5316539  0.015919219            0   0.51573468    1.3619551     1.893609   -2.8138077 
 1650000   0.97298375 0.00010255638   0.43657827 0.0039213745            0   0.43265689    1.4473133    1.8838916    5.3844828 
 1655000   0.92733881 4.8942681e-05   0.51445433  0.003051141            0   0.51140319    1.3794165    1.8938708    3.5644477 
 1660000   0.92683612 0.00010237078   0.50166882 0.0034644113            0   0.49820441    1.3786687    1.8803375    5.3745934 
 1665000   0.94891018 6.7824995e-05   0.47911651 0.0034900493            0   0.47562646    1.4115039    1.8906204    4.2057136 
 1670000    1.0117865 0.00012781094   0.41604365 0.0016875121            0   0.41435614    1.5050324     1.921076    6.2836896 
 1675000   0.93569097  5.87248e-07   0.52441041 0.0012491636            0   0.52316124    1.3918403    1.9162507    1.9362955 
 1680000    0.9505406 -0.00010349914   0.48958265 0.0014986135            0   0.48808404    1.4139291    1.9035118   -1.6292589 
 1685000   0.91354511 1.0664236e-05   0.56209345  0.006113555            0    0.5559799    1.3588984    1.9209918    2.2849977 
 1690000   0.93841605 -8.9387812e-05   0.53645078  0.026449448            0   0.51000133    1.3958939    1.9323447   -1.1187593 
 1695000   0.94801777 -0.00014066214   0.50828109  0.030346529            0   0.47793456    1.4101764    1.9184575   -2.8828102 
 1700000   0.92404219 -0.00013863853   0.54605316  0.018427261            0    0.5276259    1.3745128    1.9205659   -2.8116291 
 1705000   0.93634375 -0.00013591283   0.53577223 0.0056687502            0   0.53010348    1.3928113    1.9285836   -2.7105745 
 1710000   0.95090277 -1.3755802e-05    0.5205359 0.00060338145            0   0.51993252    1.4144679    1.9350038    1.4654724 
 1715000   0.99124164 0.00010603843   0.46021775  0.004475019            0   0.45574273    1.4744719    1.9346897    5.5541346 
 1720000   0.92231018 -9.4494383e-05   0.55967305  0.009595166            0   0.55007788    1.3719364    1.9316094   -1.2937988 
 1725000   0.98899176 6.7817652e-05   0.46441576  0.002972085            0   0.46144368    1.4711252     1.935541    4.2503835 
 1730000   0.95136055 -3.1992523e-05   0.52266669 0.0023218783            0   0.52034481    1.4151488    1.9378155   0.84580407 
 1735000    0.9081122 -0.00013617471   0.57359256 0.0072515243            0   0.56634103    1.3508169    1.9244095   -2.7236874 
 1740000    0.9244028 -8.3945593e-05   0.52488181  0.012943611            0    0.5119382    1.3750492     1.899931  -0.96541193 
 1745000   0.91385746 6.6788015e-05   0.54782992  0.010817957            0   0.53701196     1.359363    1.9071929    4.1868905 
 1750000   0.97911513 7.9213261e-05   0.45196353 0.0060128233            0   0.44595071    1.4564338    1.9083973    4.6122099 
 1755000   0.91052544 4.4164396e-05   0.55345109  0.010995635            0   0.54245545    1.3544066    1.9078577    3.4153357 
 1760000   0.92331962 1.3991555e-05   0.55008923  0.013679192            0   0.53641004    1.3734379    1.9235272    2.4011056 
 1765000   0.94852915 0.00011688248   0.51044976 0.0042585958            0   0.50619117    1.4109371    1.9213869    5.9109755 
 1770000   0.93193202 0.00010553147   0.52050985 0.00024075719            0   0.52026909    1.3862489    1.9067587    5.5088995 
 1775000   0.94932224 6.286396e-05   0.51461911 0.00019184947            0   0.51442726    1.4121168    1.9267359    4.0724924 
 1780000   0.98431961 -0.00010360281   0.45331729 0.0053423396            0   0.44797495    1.4641754    1.9174927   -1.6188164 
 1785000   0.95668711 -2.5591921e-05   0.50969051 0.0077503568            0   0.50194015    1.4230721    1.9327626     1.059225 
 1790000   0.92982031 -2.9679136e-05   0.55500705  0.011635373            0   0.54337168    1.3831077    1.9381148   0.92506694 
 1795000   0.97021147 -6.5127925e-05   0.53100267  0.022017605            0   0.50898507    1.4431896    1.9741922  -0.24884095 
 1800000    1.0156401 -1.8900665e-05   0.47883339  0.014483131            0   0.46435026    1.5107647    1.9895981    1.3444554 
 1805000   0.94295393 -6.9558925e-05   0.57116905 0.0039676869            0   0.56720136     1.402644     1.973813  -0.40046498 
 1810000   0.99697223 -7.0628767e-05   0.51666127 0.0038057669            0   0.51285551    1.4829962    1.9996575  -0.41113778 
 1815000    1.0353928 -0.00013063615   0.45720573  0.014973553            0   0.44223217    1.5401467    1.9973524   -2.4616947 
 1820000    1.0284959 -0.00015427326   0.46712568  0.013365163            0   0.45376051    1.5298876    1.9970133   -3.2688474 
 1825000   0.98334503 -6.739757e-05   0.53209428 0.0073725593            0   0.52472172    1.4627257      1.99482  -0.30568372 
 1830000   0.96386432 3.8639406e-05   0.55073725  0.016688904            0   0.53404835    1.4337482    1.9844854    3.3033772 
 1835000    1.0081567 4.436704e-05   0.49044692  0.019398654            0   0.47104827     1.499633    1.9900799    3.5044749 
 1840000   0.98400284 -0.00019312497   0.49274723 0.0081595971            0   0.48458764    1.4637042    1.9564515   -4.6355477 
 1845000   0.95841387 -2.2009289e-05   0.51424641 0.0024637792            0   0.51178263    1.4256406     1.939887    1.1886366 
 1850000     1.034498 0.00021528973   0.43146243  0.002260857            0   0.42920157    1.5388157    1.9702782    9.3188344 
 1855000   0.99827544 0.00030288069   0.47327339 0.0078809571            0   0.46539243    1.4849347    1.9582081    12.296536 
 1860000   0.95974019 0.00011871992   0.51952987  0.022381505            0   0.49714836    1.4276135    1.9471434      5.99945 
 1865000   0.93669997 -2.3858045e-05   0.54162505 0.0086367785            0   0.53298827    1.3933412    1.9349662    1.1206117 
 1870000   0.95908901 6.1265946e-05   0.50206741 0.0076799329            0   0.49438748    1.4266449    1.9287123    4.0199233 
 1875000   0.93463733 -0.00014703955   0.54141251 0.0081509208            0   0.53326159     1.390273    1.9316855   -3.0872645 
 1880000   0.94166461 0.00016596246   0.53692221  0.012920997            0   0.52400121    1.4007261    1.9376483    7.6025003 
 1885000   0.98011074 0.00014272404   0.47917634 0.0080309165            0   0.47114542    1.4579147    1.9370911    6.8087383 
 1890000   0.98800663 -0.00010571961   0.46909438 0.0041857175            0   0.46490866    1.4696599    1.9387542   -1.6698084 
 1895000   0.97279873 4.3202195e-05   0.50678811 0.0029016733            0   0.50388644    1.4470381    1.9538262    3.4284611 
 1900000   0.96682547 0.00014364741   0.50860761  0.014428012            0    0.4941796    1.4381529    1.9467605    6.8499254 
 1905000   0.95915168 0.00010577513   0.50253363  0.030493146            0   0.47204048    1.4267381    1.9292718    5.5397295 
 1910000   0.94982045 -0.00010201554   0.49625094  0.024709792            0   0.47154115    1.4128579    1.9091089   -1.5730216 
 1915000   0.97381469 3.5623996e-05   0.46505205  0.015023931            0   0.45002812    1.4485494    1.9136014    3.1295671 
 1920000   0.95361307 -7.5178032e-05   0.49901223  0.013652416            0   0.48535982    1.4184994    1.9175117  -0.64856514 
 1925000   0.96790919 9.8313281e-07   0.49206486  0.017987251            0   0.47407761    1.4397649    1.9318298    1.9653874 
 1930000   0.95973179 -2.9869892e-05   0.51064421 0.0024766985            0   0.50816751     1.427601    1.9382452   0.91868626 
 1935000    1.0039749 2.718627e-05    0.4677736 0.0054431446            0   0.46233046    1.4934127    1.9611863    2.8891443 
 1940000   0.98743121 8.7199113e-05   0.49275301 0.0095541355            0   0.48319887    1.4688039    1.9615569    4.9379533 
 1945000    1.0146166 -1.1494101e-05   0.45948766 0.0026708284            0   0.45681683    1.5092422    1.9687298    1.5763979 
 1950000   0.95422449 8.7990137e-05   0.55097037 0.0075304794            0   0.54343989    1.4194089    1.9703793     4.973776 
 1955000   0.99251558 -9.3244345e-05   0.49194145  0.021983597            0   0.46995785    1.4763669    1.9683084   -1.2144319 
 1960000   0.98298069 0.00010007821   0.49821102  0.019338371            0   0.47887265    1.4621838    1.9603948    5.3763977 
 1965000   0.98998744 0.00014227256   0.48516565  0.002365582            0   0.48280007    1.4726063     1.957772    6.8140086 
 1970000   0.94827625 -5.105972e-05   0.53561218 0.0046930086            0   0.53091918    1.4105609    1.9461731   0.20333465 
 1975000   0.96509017 1.5335741e-05     0.519076 0.0099863674            0   0.50908963    1.4355716    1.9546476    2.4781076 
 1980000   0.98895083 1.6183954e-05   0.49297307 0.0071818945            0   0.48579118    1.4710644    1.9640374    2.5164497 
 1985000   0.93084396 -0.00015849514   0.56465715 0.0064490785            0   0.55820807    1.3846304    1.9492875   -3.4606799 
 1990000   0.94592267 1.4162289e-05   0.55476023  0.010407953            0   0.54435228      1.40706    1.9618202    2.4452263 
 1995000   0.98869385 -7.5622709e-05   0.49467999  0.010894603            0   0.48378539    1.4706821    1.9653621  -0.61589303 
 2000000   0.97717385 -6.4081213e-05   0.51765028 0.0037379776            0    0.5139123    1.4535461    1.9711964  -0.21610904 
 2005000   0.96943245 0.00010665762    0.5459786 0.00013298604            0   0.54584562    1.4420308    1.9880094    5.6285896 
 2010000   0.98931248 -6.3079945e-05   0.51246196   0.00123071            0   0.51123125    1.4716023    1.9840643  -0.16906451 
 2015000   0.96294745 -9.6643534e-05    0.5165334 0.0023879203            0   0.51414548    1.4323843    1.9489177   -1.3498482 
 2020000   0.94187644 -4.2854915e-05   0.52094476 0.0087388653            0    0.5122059    1.4010412     1.921986   0.45920486 
 2025000   0.93671344 -1.2324658e-05   0.52386269   0.02483597            0   0.49902672    1.3933612    1.9172239    1.4965423 
 2030000     1.005306 -3.4255723e-05   0.40690595 0.00083405753            0   0.40607189    1.4953926    1.9022986   0.73303656 
 2035000   0.92969361 5.5347713e-05   0.51842679 0.0052783584            0   0.51314843    1.3829192     1.901346     3.790548 
 2040000   0.92656446 3.9721526e-05   0.52818904  0.021035229            0   0.50715381    1.3782646    1.9064537    3.2622818 
 2045000   0.91219171 -2.5721789e-05   0.55583305  0.039846875            0   0.51598617    1.3568852    1.9127182    1.0347478 
 2050000   0.92446298 5.0394398e-05     0.510781  0.018281923            0   0.49249908    1.3751387    1.8859197    3.6060485 
 2055000   0.92564283 -0.00013284949   0.49357751 0.0072009459            0   0.48637656    1.3768937    1.8704712   -2.6641248 
 2060000   0.94061487 0.0001381597   0.48042748  0.004785069            0   0.47564242    1.3991646    1.8795921    6.5954433 
 2065000   0.91173945 8.0644929e-05   0.52131647 0.0073497466            0   0.51396672    1.3562124    1.8775289    4.6302091 
 2070000   0.95487638 -3.5848534e-05   0.48204867   0.01787816            0   0.46417051    1.4203786    1.9024273   0.67879733 
 2075000   0.97453635 1.3874952e-06   0.45317371  0.014597003            0   0.43857671    1.4496228    1.9027965    1.9501564 
 2080000     0.908496 2.0487502e-05   0.55079804  0.010894996            0   0.53990304    1.3513878    1.9021858    2.6014926 
 2085000   0.94484837 -3.0023034e-05   0.48350073  0.025378899            0   0.45812183     1.405462    1.8889627   0.86417646 
 2090000   0.89795199 -0.00012177821   0.52758921  0.026832017            0   0.50075719    1.3357036    1.8632928   -2.2934033 
 2095000   0.82560049 -0.00019503052    0.6406465  0.016951394            0   0.62369511    1.2280807    1.8687272   -4.7883145 
 2100000   0.93477338 1.1145478e-05    0.4902676  0.011069071            0   0.47919853    1.3904754     1.880743    2.2611753 
 2105000   0.93035453 0.0001302735   0.49883657 0.0052359365            0   0.49360063    1.3839024    1.8827389    6.3294078 
 2110000    0.9245203 -2.4503988e-05   0.52777219  0.006984191            0     0.520788     1.375224    1.9029961    1.0665934 
 2115000   0.90207099 0.00010870975   0.54583662  0.014181086            0   0.53165554    1.3418306    1.8876672    5.5982933 
 2120000   0.89152248 4.5023516e-06   0.55034372  0.019832924            0    0.5305108    1.3261397    1.8764834    2.0301637 
 2125000   0.95497398 -4.3804421e-06   0.46329583  0.013126488            0   0.45016935    1.4205238    1.8838196    1.7343005 
 2130000   0.91983529 0.00018647744   0.52972649   0.01368921            0   0.51603728     1.368255    1.8979815    8.2630782 
 2135000   0.98330458 0.0001686644   0.42521499 0.0095662949            0   0.41564869    1.4626656    1.8878805    7.6449586 
 2140000   0.96743947 -1.9760123e-05    0.4427169 0.0061542936            0    0.4365626    1.4390662    1.8817831    1.2073042 
 2145000   0.91577879 -0.00014338017   0.49701963 0.0020626702            0   0.49495696     1.362221    1.8592406   -3.0348026 
 2150000   0.88679899 -0.00011601933   0.54504638 0.0061620897            0    0.5388843    1.3191135    1.8641599   -2.0959667 
 2155000   0.90833513 9.554072e-06   0.51415103 0.0078296224            0   0.50632141    1.3511485    1.8652995    2.1914119 
 2160000   0.93798392 7.7887123e-05   0.43465845 0.0038155776            0   0.43084287    1.3952511    1.8299095    4.4884567 
 2165000    0.9192431 3.8494941e-05   0.47916306  0.015815768            0   0.46334729    1.3673741    1.8465372    3.1604978 
 2170000   0.85963418 -9.9365357e-05   0.57160642  0.037431701            0   0.53417472    1.2787058    1.8503123   -1.5413586 
 2175000   0.91020346 -3.8180912e-05   0.50752265 0.0099731404            0   0.49754951    1.3539276    1.8614503    0.5582085 
 2180000    0.9546054 0.00018580502   0.45911655 0.0060741835            0   0.45304237    1.4199755    1.8790921    8.2212369 
 2185000   0.89971081 -0.00011787686   0.54965467 0.0090622965            0   0.54059237    1.3383198    1.8879745   -2.1355558 
 2190000   0.98511982 -8.4483253e-05   0.44318549  0.001902132            0   0.44128336    1.4653657    1.9085512  -0.97514381 
 2195000   0.93840433 -9.5500585e-05   0.48843549 0.0049264052            0   0.48350909    1.3958764    1.8843119   -1.3754414 
 2200000   0.85448772 -2.8797397e-05   0.61731025 0.0093833952            0   0.60792686    1.2710505    1.8883607   0.90540959 
 2205000   0.90889906 4.5165256e-05   0.52879451 0.0036858542            0   0.52510865    1.3519873    1.8807819    3.4224226 
 2210000   0.92161023 -4.2379947e-05   0.51327308 0.0083971358            0   0.50487594    1.3708952    1.8841683   0.43759945 
 2215000   0.95525873 -5.2283874e-05    0.4409157  0.016671367            0   0.42424434    1.4209474    1.8618631  0.077240173 
 2220000   0.83903382 -0.00011490858    0.6205864 0.0063162908            0    0.6142701    1.2480628    1.8686492   -2.0535636 
 2225000   0.88882159 4.4976716e-05   0.53148092 0.0053105456            0   0.52617037    1.3221221     1.853603    3.3888083 
 2230000   0.84380145 6.7197016e-05   0.62100708 0.0050632229            0   0.61594386    1.2551547    1.8761617    4.1698199 
 2235000   0.91651513 -4.0387093e-05   0.52657703  0.011642949            0   0.51493408    1.3633163    1.8898933   0.51134719 
 2240000   0.87239018 -0.00011541299   0.59838846  0.023483328            0   0.57490514    1.2976804    1.8960689   -2.0433612 
 2245000   0.89960364 1.6166272e-05   0.54956615  0.018716569            0   0.53084958    1.3381604    1.8877266    2.4395353 
 2250000   0.87345559 0.00016344236    0.5693201  0.013864026            0   0.55545607    1.2992652    1.8685853     7.447418 
 2255000   0.93877419 6.2314753e-05   0.48989865  0.018761003            0   0.47113765    1.3964266    1.8863253    4.0133355 
 2260000   0.93483551 -7.3681521e-05    0.4920872 0.0067404987            0    0.4853467    1.3905678     1.882655  -0.63234089 
 2265000   0.93936216 -0.00011384875   0.49631203  0.012705274            0   0.48360675    1.3973012    1.8936132    -1.992424 
 2270000   0.97506823 -1.3448061e-06   0.45885343  0.011430307            0   0.44742313     1.450414    1.9092674    1.8633647 
 2275000   0.94484728 0.00012245774   0.51762573 0.0054160684            0   0.51220966    1.4054603    1.9230861     6.102977 
 2280000   0.98448452 6.2634645e-05   0.44750514 0.0021852862            0   0.44531985    1.4644207    1.9119259    4.0498551 
 2285000   0.87948328 -0.00012127726   0.62559948  0.010309816            0   0.61528966    1.3082314    1.9338309   -2.2057664 
 2290000   0.98171875 -7.7310065e-05   0.47244103  0.012257777            0   0.46018326    1.4603066    1.9327477  -0.70610256 
 2295000   0.92626353 -4.6774098e-05   0.55462133 0.0072677837            0   0.54735355     1.377817    1.9324383   0.33588245 
 2300000   0.95702832 -4.4527562e-05   0.49356709 0.0083532564            0   0.48521384    1.4235796    1.9171467   0.39727259 
 2305000   0.93284949 3.1462854e-05   0.54618815 0.0044333025            0   0.54175485    1.3876136    1.9338018    3.0077339 
 2310000    1.0098957 0.00016161972   0.45365607   0.00250592            0   0.45115015    1.5022199    1.9558759    7.4724958 
 2315000    1.0352058 0.00020492871   0.44876269 0.0018371371            0   0.44692556    1.5398687    1.9886314    8.9835313 
 2320000   0.97948888 2.9105422e-05   0.53867168 0.0061376766            0     0.532534    1.4569897    1.9956614    2.9891265 
 2325000    1.0500902 -4.4025392e-05    0.4340661  0.013078505            0    0.4209876    1.5620092    1.9960753   0.49334195 
 2330000   0.99028455 -1.1925098e-05   0.52966494  0.041227135            0   0.48843781    1.4730483    2.0027132    1.5956699 
 2335000   0.99708667 -0.00012997455   0.53410366  0.012323306            0   0.52178036    1.4831664    2.0172701   -2.4191945 
 2340000    1.0238299 -0.00011838699   0.48772804 0.0072703156            0   0.48045773    1.5229469     2.010675   -2.0302676 
 2345000    1.0291692 -8.0189102e-06   0.48641179  0.012179182            0   0.47423261    1.5308892     2.017301    1.7435889 
 2350000    1.0315141 2.168827e-05   0.51587856   0.01364969            0   0.50222887    1.5343772    2.0502558    2.7905488 
 2355000    1.0427089 7.2003151e-05    0.4706415  0.010241404            0    0.4604001    1.5510295     2.021671    4.4793785 
 2360000     1.060183 0.0001707446    0.4602665 0.0058647261            0   0.45440178    1.5770222    2.0372887    7.8653711 
 2365000    1.0142571 -5.7803509e-07   0.48191877 0.0070912919            0   0.47482748    1.5087074    1.9906261    1.9708959 
 2370000     1.069509 -0.00012005229   0.40681119  0.017705559            0   0.38910563    1.5908946    1.9977058   -2.1000792 
 2375000    1.0089379 -9.9696514e-05   0.49106859  0.029237714            0   0.46183088    1.5007952    1.9918638   -1.4111106 
 2380000   0.99705609 4.0550669e-05   0.52546204  0.023005688            0   0.50245635    1.4831209     2.008583    3.3927125 
 2385000    1.0419237 -4.9795331e-05   0.48762247  0.020543298            0   0.46707917    1.5498614    2.0374839    0.3378033 
 2390000    1.0095999 -0.00011935748   0.51830379 0.0067381172            0   0.51156567    1.5017799    2.0200837   -2.0539849 
 2395000   0.98369197 6.4456093e-06   0.53764675 0.0040808615            0   0.53356589    1.4632418    2.0008886    2.2208987 
 2400000     1.054291 -1.1586915e-05   0.42950163   0.00417395            0   0.42532768    1.5682579    1.9977595    1.6022595 
 2405000    1.0352001 3.6545881e-06    0.4694577 0.0084761418            0   0.46098156    1.5398601    2.0093178    2.1340611 
 2410000    1.0251873 1.8448714e-05   0.51630726  0.014486722            0   0.50182053    1.5249661    2.0412733    2.6709894 
 2415000    1.0076295 5.9840438e-05   0.54393494   0.01363577            0   0.53029917    1.4988489    2.0427838    4.0853375 
 2420000    1.0149276 -4.632599e-05   0.48651127  0.020646039            0   0.46586523    1.5097048    1.9962161   0.41495563 
 2425000     1.042287 -0.00013994844   0.44826765  0.018963133            0   0.42930452    1.5504019    1.9986696   -2.7782371 
 2430000     1.071647 9.4126003e-05   0.42360081  0.018469897            0   0.40513091    1.5940749    2.0176757    5.2305099 
 2435000   0.99746714 6.6547494e-05   0.51895874 0.0090271352            0   0.50993161    1.4837324    2.0026911    4.2741789 
 2440000    1.0320231 -3.4582474e-05   0.48582244 0.0029194113            0   0.48290303    1.5351344    2.0209568   0.84054169 
 2445000    1.0146231 1.7918377e-05    0.5164113  0.012968397            0    0.5034429    1.5092518    2.0256631    2.6372771 
 2450000    1.0883954 -1.6864339e-05   0.40513866  0.009903177            0   0.39523549    1.6189881    2.0241268    1.4484907 
 2455000    1.0242563 -2.069151e-05   0.50237562  0.019067961            0   0.48330765    1.5235813    2.0259569    1.3196867 
 2460000   0.97281398 -0.00012482382   0.58833007  0.011385977            0   0.57694409    1.4470608    2.0353909    -2.225262 
 2465000    1.0564931 2.7312876e-05   0.45304392 0.0025991174            0    0.4504448    1.5715335    2.0245774    2.9568569 
 2470000    1.0267308 9.8391021e-05   0.49140673 0.0031984604            0   0.48820827     1.527262    2.0186687    5.3770822 
 2475000    1.0499407 0.00012587641   0.44009817  0.012257021            0   0.42784115    1.5617868     2.001885    6.2984664 
 2480000   0.98677648 3.5851959e-05   0.51927528 0.0095660674            0   0.50970921      1.46783    1.9871053    3.2108522 
 2485000     1.024154 -0.00014300264   0.44709524 0.0079795096            0   0.43911573     1.523429    1.9705243   -2.9106323 
 2490000    1.0257743 -1.5342817e-05   0.45388562 0.0017232321            0   0.45216238    1.5258393    1.9797249    1.4560235 
 2495000    1.0180111 5.2819391e-05   0.47244527 0.00075611981            0   0.47168915    1.5142915    1.9867368    3.7896387 
 2500000    1.0142808 -4.106203e-05   0.47875116 0.0099666887            0   0.46878447    1.5087427    1.9874939    0.5859099 
 2505000    1.0285257 0.0001246489   0.45954979  0.025549153            0   0.43400064     1.529932    1.9894818    6.2441641 
 2510000    1.0031315 0.00015110385   0.47879737  0.026823991            0   0.45197338    1.4921582    1.9709555    7.1286336 
 2515000   0.98701421 7.6175819e-05   0.50239056  0.029618269            0   0.47277229    1.4681836    1.9705742    4.5707088 
 2520000   0.98102912 2.6193699e-05   0.49997728 0.0090392732            0   0.49093801    1.4592808    1.9592581    2.8533364 
 2525000   0.96241802 -9.2643494e-05   0.53898194  0.007564935            0     0.531417    1.4315968    1.9705787   -1.1916525 
 2530000    1.0465336 7.511358e-05   0.41110563   0.01211558            0   0.39899005    1.5567187    1.9678244    4.5317012 
 2535000    1.0259071 1.6681489e-05   0.47111793  0.014868825            0   0.45624911    1.5260368    1.9971547    2.5665495 
 2540000    1.0351488 5.6716396e-05   0.43667305  0.011433658            0    0.4252394    1.5397838    1.9764569    3.9123765 
 2545000    1.0099087 7.8665901e-05   0.48767273  0.015565033            0   0.47210769    1.5022392    1.9899119    4.6750413 
 2550000    1.0124947 1.0853547e-05   0.51286853  0.013784473            0   0.49908405    1.5060858    2.0189543    2.3894221 
 2555000    1.0088693 0.0002254738   0.51438988  0.021305126            0   0.49308475    1.5006931     2.015083    9.7112552 
 2560000    1.0624598 0.00010851641   0.42715805  0.019290006            0   0.40786804    1.5804089     2.007567    5.7115936 
 2565000    1.0289299 -8.3856864e-05   0.48098527 0.0083920293            0   0.47259324    1.5305333    2.0115186  -0.85079573 
 2570000    1.0146056 -4.0197213e-05   0.51001599 0.0090837212            0   0.50093227    1.5092258    2.0192418   0.64717696 
 2575000    1.0297585 -2.7179454e-05   0.46891735 0.0042432661            0   0.46467409    1.5317658    2.0006832    1.0729578 
 2580000   0.98905716 8.4403601e-05   0.51414629 0.0045047237            0   0.50964156    1.4712225    1.9853688     4.866345 
 2585000   0.95232488 -5.0553113e-05   0.52780763   0.02187373            0    0.5059339    1.4165833    1.9443909   0.21884462 
 2590000    0.9626876 -4.8451959e-05   0.49986365  0.011391754            0   0.48847189    1.4319978    1.9318615   0.27803458 
 2595000   0.95714082 -6.6104135e-05   0.49717259 0.0066262108            0   0.49054638     1.423747    1.9209196  -0.33543492 
 2600000   0.94916056 -0.00011039818   0.49219221  0.012485607            0   0.47970661    1.4118763    1.9040685   -1.8641894 
 2605000   0.96655653 -2.7518165e-05   0.46281076  0.014899418            0   0.44791134    1.4377528    1.9005636   0.96127691 
 2610000   0.95228483 0.00010692282   0.50562762  0.007403733            0   0.49822388    1.4165237    1.9221513    5.5717836 
 2615000   0.97056542 -3.0413378e-05   0.49213205  0.024427401            0   0.46770465    1.4437161    1.9358481   0.89773815 
 2620000    1.0500211 -0.00010421715    0.3802575  0.012627387            0   0.36763011    1.5619065     1.942164   -1.6151148 
 2625000   0.95945886 -9.587084e-05   0.49491771 0.0010234467            0   0.49389426    1.4271951    1.9221128   -1.3502786 
 2630000   0.99895438 -2.6448247e-05   0.44327292 0.0011613113            0   0.44211161    1.4859446    1.9292176    1.0264507 
 2635000     1.001127 4.9833587e-05   0.43076803 0.0077712832            0   0.42299675    1.4891764    1.9199444    3.6209308 
 2640000   0.91501192 -3.0175745e-05    0.5457558  0.020443318            0   0.52531248    1.3610802     1.906836   0.87683727 
 2645000   0.95592923 -6.0071727e-06   0.47515376  0.025693487            0   0.44946028    1.4219447    1.8970985    1.6920537 
 2650000    1.0011992 0.0001934395   0.42855219  0.019167164            0   0.40938503    1.4892838     1.917836    8.5205708 
 2655000   0.95526469 3.717765e-05   0.46818304 0.0072322833            0   0.46095076    1.4209562    1.8891393    3.1581364 
 2660000   0.97162593 -9.3777369e-05   0.43129501  0.011831517            0   0.41946349    1.4452936    1.8765886   -1.3243456 
 2665000   0.94111827 -2.3153021e-05   0.46649804  0.009274424            0   0.45722362    1.3999134    1.8664115    1.0761217 
 2670000   0.88660555 -5.0533725e-05   0.53979137 0.0010919984            0   0.53869937    1.3188258    1.8586171   0.13373266 
 2675000   0.94986433 -8.1303745e-05   0.46379125 0.0012662126            0   0.46252503    1.4129232    1.8767144  -0.89845339 
 2680000   0.94115283 -0.00013186536   0.46864266 0.0017505506            0    0.4668921    1.3999648    1.8686075   -2.6323969 
 2685000   0.89780344 -6.4294322e-05   0.55950677  0.008314043            0   0.55119272    1.3354826    1.8949894  -0.29959014 
 2690000   0.98764771 -0.00010461659   0.44796632  0.017983405            0   0.42998291     1.469126    1.9170923   -1.6538207 
 2695000   0.93879743 -3.2913306e-05   0.50931919  0.020017699            0   0.48930149    1.3964612    1.9057804   0.78233952 
 2700000   0.92385577 0.00015701876   0.54949422  0.028692534            0   0.52080169    1.3742355    1.9237297    7.2833033 
 2705000   0.90920396 5.2019742e-06   0.58934672  0.011946801            0   0.57739992    1.3524409    1.9417876    2.1193483 
 2710000   0.93295878 -6.163105e-05   0.54768916  0.040420064            0   0.50726909    1.3877762    1.9354653  -0.16820784 
 2715000   0.99199086 1.2098434e-05   0.46490241  0.020634156            0   0.44426825    1.4755864    1.9404888    2.3534487 
 2720000   0.94574532 0.00010858885   0.51816024  0.010638073            0   0.50752217    1.4067962    1.9249564    5.6314559 
 2725000   0.94681606 0.00015593482   0.49478576  0.010127548            0   0.48465821    1.4083889    1.9031747    7.2257498 
 2730000   0.95918622 0.00010251883   0.46600054 0.0086407211            0   0.45735982    1.4267895      1.89279    5.3920993 
 2735000   0.92957125 -0.00017841414   0.52195874  0.019132091            0   0.50282665    1.3827372     1.904696   -4.1851733 
 2740000   0.96666831 -0.00012610486   0.48199881  0.028844222            0   0.45315459    1.4379191    1.9199179   -2.3844612 
 2745000    1.0103286 1.9253279e-05    0.4327644  0.022485072            0   0.41027933    1.5028638    1.9356282    2.5928068 
 2750000   0.97607185 -0.00011519459   0.48344434   0.02238672            0   0.46105762    1.4519069    1.9353512    -1.996624 
 2755000   0.93267164 1.1992551e-05   0.55755805  0.013352348            0    0.5442057    1.3873491    1.9449071    2.3542528 
 2760000   0.94798871 3.176911e-06   0.58139427 0.0058802587            0   0.57551401    1.4101332    1.9915275     2.099966 
 2765000      1.00541 -0.00020044907   0.48915698 0.0033769687            0   0.48578001    1.4955473    1.9847043   -4.8572906 
 2770000   0.97004443 -0.0001348998   0.55488423  0.012221278            0   0.54266295    1.4429411    1.9978253   -2.6067546 
 2775000    1.0055587 0.00025761857   0.50815861  0.035035561            0   0.47312305    1.4957686    2.0039272    10.797308 
 2780000    1.0249474 -2.753013e-05   0.48193924  0.010846083            0   0.47109315    1.5246092    2.0065484    1.0668533 
 2785000   0.98064757 1.3337258e-05   0.52733213  0.014534602            0   0.51279753    1.4587133    1.9860454    2.4412904 
 2790000   0.95880693 -2.0127289e-06   0.59096259  0.017099571            0   0.57386302    1.4262253    2.0171879    1.9484868 
 2795000   0.94005498 -0.00011589144   0.61077511 0.0082380075            0    0.6025371    1.3983318    2.0091069   -1.9466543 
 2800000    1.0948401 8.7545547e-05   0.40453261 0.0070079684            0   0.39752464    1.6285746    2.0331072    5.0213286 
 2805000    1.0414277 0.00015848167   0.48551015  0.023113348            0    0.4623968    1.5491237    2.0346338    7.4441414 
 2810000   0.96366133 1.055705e-05   0.58729033  0.044360357            0   0.54292997    1.4334462    2.0207366    2.3810838 
 2815000    1.0189872 5.9693975e-05   0.51062947  0.020104716            0   0.49052475    1.5157435     2.026373    4.0639273 
 2820000   0.97642735 3.1057649e-05   0.56015319  0.018295034            0   0.54185815    1.4524357    2.0125889      3.07269 
 2825000    1.0158723 -0.00015634458   0.49662277  0.014861437            0   0.48176133    1.5111101    2.0077329   -3.3288288 
 2830000   0.96294611 3.2023461e-05   0.55162868  0.023630572            0    0.5279981    1.4323823     1.984011    3.0770785 
 2835000   0.98022785 3.7510719e-05   0.52062472  0.053765482            0   0.46685924    1.4580889    1.9787137    3.2590795 
 2840000   0.91479683 2.3335872e-05   0.60582003  0.066564053            0   0.53925597    1.3607603    1.9665803    2.7631114 
 2845000   0.95536739  2.62343e-05   0.55017344  0.028406359            0   0.52176708     1.421109    1.9712824    2.8667465 
 2850000    1.0149557 4.5267215e-06     0.490558  0.013349819            0   0.47720818    1.5097465    2.0003045    2.1548166 
 2855000    1.0052177 0.00013113452   0.52172129 0.0024319136            0   0.51928938    1.4952614    2.0169827    6.4930409 
 2860000    1.0053935 -7.412087e-05   0.52859836 0.00078530593            0   0.52781305    1.4955228    2.0241212   -0.5058712 
 2865000   0.97112221 3.5879019e-05   0.58919101 0.0015822211            0   0.58760879    1.4445443    2.0337353    3.2584058 
 2870000    1.0154061 -6.2283358e-05    0.5418774  0.010272342            0   0.53160506    1.5104166     2.052294 -0.073644634 
 2875000   0.93320163 -5.4717817e-05   0.64861336  0.056199873            0   0.59241348    1.3881374    2.0367508   0.16904929 
 2880000   0.97157208 -8.5128507e-05   0.60656415  0.033580527            0   0.57298363    1.4452135    2.0517776   -0.8539421 
 2885000    1.0288647 0.00022144837   0.51072334 0.0054204066            0   0.50530293    1.5304363    2.0411597    9.5999308 
 2890000    1.0139291 3.351072e-05   0.51512339 0.00022408079            0   0.51489931    1.5082195    2.0233429    3.1671754 
 2895000   0.99877555 9.6063491e-05   0.54241242 0.0050022757            0   0.53741015    1.4856786    2.0280911    5.3070582 
 2900000   0.98706876 2.5156311e-05   0.57225747  0.012603498            0   0.55965397    1.4682648    2.0405222     2.899191 
 2905000   0.99671458 7.5989501e-05   0.56322995 0.0065911232            0   0.55663883    1.4826129    2.0458429    4.6396179 
 2910000    1.0797232 3.0714393e-05   0.46002326  0.011949958            0    0.4480733    1.6060882    2.0661115    3.1144961 
 2915000   0.96860636 1.594283e-05   0.61022716  0.042987962            0    0.5672392     1.440802    2.0510291     2.595211 
 2920000    1.0145827 -0.00017669891   0.56178061  0.028169125            0   0.53361148    1.5091918    2.0709724   -3.9603504 
 2925000    1.0703117 -0.00013919129   0.48182793  0.030520816            0   0.45130712    1.5920887    2.0739166   -2.6771461 
 2930000   0.99850893 0.00010911758   0.56963557 0.0043019691            0    0.5653336     1.485282    2.0549176    5.7794643 
 2935000   0.99951984 2.3691862e-06   0.55848558  0.016221863            0   0.54226372    1.4867858    2.0452713    2.1261396 
 2940000      1.00596 -1.9935639e-05   0.56049341  0.027724506            0   0.53276891    1.4963655    2.0568589    1.3763891 
 2945000   0.98165271 -0.00011674169   0.58920604   0.04381574            0    0.5453903    1.4602084    2.0494144   -1.9353685 
 2950000    1.0269229 -9.6245818e-05   0.51540851  0.032778617            0   0.48262989    1.5275479    2.0429564   -1.2422342 
 2955000   0.97385822 -5.5217723e-05    0.5752886  0.017043163            0   0.55824543    1.4486141    2.0239027   0.13913777 
 2960000    1.0303992 8.0388827e-05   0.51969175  0.021364569            0   0.49832718    1.5327188    2.0524105    4.7963492 
 2965000    1.0262131 -8.9993216e-05   0.51169436 0.0084419283            0   0.50325243    1.5264921    2.0381864    -1.033582 
 2970000    1.0085202 9.3393632e-05   0.53159505  0.028782988            0   0.50281206    1.5001737    2.0317688    5.2196047 
 2975000   0.96747782 6.6430233e-05   0.58114029  0.019941581            0   0.56119871    1.4391233    2.0202635    4.2877488 
 2980000   0.99124891 4.7504002e-08   0.53979943   0.02723635            0   0.51256308    1.4744827    2.0142822    2.0159036 
 2985000   0.97172136 -2.3467552e-05   0.56771761  0.021087624            0   0.54662998    1.4454355    2.0131531    1.2121274 
 2990000    0.9873436 6.9247738e-05   0.55612233  0.028732193            0   0.52739013    1.4686736    2.0247959    4.3884521 
 2995000    1.0247569 -8.1216469e-05   0.51005754  0.012261925            0   0.49779562    1.5243258    2.0343834  -0.73780546 
[...]
19285000    1.1209082 -5.0808268e-05   0.43042793 0.0093076063            0   0.42112032    1.6673509    2.0977789   0.36352333 
19290000    1.0205395 3.5248296e-05   0.57792823  0.035618105            0   0.54231012    1.5180525    2.0959808    3.2991226 
19295000    1.1299682 1.6303781e-05   0.44093917  0.034441802            0   0.40649737    1.6808277    2.1217669    2.6782693 
19300000    1.1112068 -1.2981731e-05   0.47317638   0.02185513            0   0.45132125      1.65292    2.1260964    1.6829867 
19305000    1.0420505 7.1318546e-05   0.54389677  0.040235918            0   0.50366085    1.5500501    2.0939469    4.5282866 
19310000    1.0614441 4.3282246e-05   0.50243514  0.037974942            0    0.4644602    1.5788981    2.0813332    3.5587005 
19315000    1.0815074 0.00010522667   0.45832311  0.033988293            0   0.42433482    1.6087423    2.0670654    5.6588025 
19320000    1.1184134 4.9280265e-05   0.41408804  0.029949797            0   0.38413824      1.66364     2.077728    3.7598277 
19325000     1.041703 -0.00011337933   0.53034718  0.035225741            0   0.49512144    1.5495333    2.0798804   -1.7901339 
19330000    1.0792561 2.2356145e-05   0.43363235  0.023853728            0   0.40977863    1.6053935    2.0390259    2.8021156 
19335000    1.0624796 4.8598648e-05     0.454313  0.014862934            0   0.43945006    1.5804384    2.0347514    3.6935852 
19340000    1.0835753 -8.1072239e-05   0.43238167 0.0065724546            0   0.42580922    1.6118182    2.0441999  -0.72306585 
19345000    1.0885629 -7.2910674e-05   0.44120683  0.011908166            0   0.42929867    1.6192373    2.0604441  -0.42824026 
19350000    1.1074859 6.1435496e-05   0.39905062  0.014476335            0   0.38457429    1.6473853    2.0464359    4.1434342 
19355000    1.0510381 4.9390842e-05   0.48498331  0.055755716            0    0.4292276    1.5634191    2.0484024    3.7342765 
19360000    1.0012308 -0.00015127721   0.54908916  0.060615086            0   0.48847407    1.4893309      2.03842   -3.1251755 
19365000    1.0331859 -6.093218e-05   0.49113434   0.06084134            0     0.430293     1.536864    2.0279984 -0.051820036 
19370000     1.056672 -3.274362e-06   0.44721816  0.049634432            0   0.39758373    1.5717996    2.0190178    1.9072529 
19375000    1.0943507 -2.03575e-05   0.38348066  0.034403056            0    0.3490776    1.6278467    2.0113274     1.316458 
19380000    1.0789468 4.7215761e-05   0.42138173  0.039831721            0   0.38155001    1.6049334    2.0263151    3.6379464 
19385000    1.0320516 1.2671103e-05   0.51446015  0.019378938            0   0.49508121    1.5351767    2.0496369    2.4821439 
19390000    1.0368231 -5.7365148e-05   0.51432592  0.054683371            0   0.45964255    1.5422743    2.0566002  0.098536512 
19395000    1.0628324 -4.6208758e-05   0.44482461   0.02594289            0   0.41888173    1.5809632    2.0257878   0.44852885 
19400000    1.0764347 1.3413306e-05   0.40904645  0.019250945            0    0.3897955    1.6011967    2.0102431     2.468084 
19405000    1.0432824 -8.7385473e-05   0.46372953  0.042042664            0   0.42168686    1.5518826    2.0156121  -0.96714537 
19410000    1.0617655 -5.7823199e-05   0.45856089  0.025750505            0   0.43281039    1.5793762    2.0379371  0.064238551 
19415000    1.0396524 0.00012729355   0.47745669 0.0041567134            0   0.47329998    1.5464829    2.0239396    6.3688927 
19420000    1.0883347 0.00014611877   0.41301074  0.011880626            0   0.40113011    1.6188979    2.0319087    7.0194295 
19425000     1.012127 5.9624274e-05   0.52640161  0.035644822            0   0.49075679     1.505539    2.0319406    4.0671158 
19430000     1.081411 0.00011106705   0.40276303  0.016506311            0   0.38625672    1.6085988    2.0113619    5.8024506 
19435000    1.0639115 0.00016137523   0.43501724  0.018335605            0   0.41668164    1.5825683    2.0175856    7.5258601 
19440000    1.0391244 -8.2424376e-05   0.47162588  0.030201981            0    0.4414239    1.5456976    2.0173235  -0.79609522 
19445000    1.0001963 -0.00013993558   0.49647868  0.021869979            0    0.4746087    1.4877919    1.9842706   -2.7921972 
19450000   0.99395827 7.1681338e-05   0.49016047  0.018211266            0    0.4719492    1.4785129    1.9686734    4.4153964 
19455000    1.0377172 4.1358576e-05   0.42974891   0.02152268            0   0.40822623    1.5436044    1.9733533    3.3850593 
19460000    1.0541433 -9.6776694e-06   0.41353667  0.038949675            0     0.374587    1.5680381    1.9815748    1.6512437 
19465000   0.97576508 6.1740076e-05   0.50789688  0.031818129            0   0.47607875    1.4514506    1.9593474     4.066742 
19470000    1.0178452 0.00011745965   0.44416065  0.011198405            0   0.43296225    1.5140448    1.9582055    5.9674947 
19475000    1.0317899 0.00021587214   0.39960603  0.026715217            0   0.37289081    1.5347875    1.9343936    9.3028293 
19480000   0.98549277 0.00013415794   0.43089063  0.028896942            0   0.40199369    1.4659205    1.8968111    6.4760689 
19485000   0.97841811 -4.7243817e-05   0.44292867  0.013511549            0   0.42941712    1.4553969    1.8983256   0.28573667 
19490000    1.0250293 -1.4156925e-05   0.37615129  0.019576421            0   0.35657487    1.5247311    1.9008824    1.4176593 
19495000    1.0088925 -1.143746e-05   0.37663524  0.015220168            0   0.36141507    1.5007276    1.8773629    1.4869642 
19500000     1.014356 -5.6263465e-05   0.38462798 0.0058523859            0    0.3787756    1.5088545    1.8934825 -0.026977088 
19505000   0.97146584 3.5519027e-05   0.44088193  0.035782635            0    0.4050993    1.4450554    1.8859374    3.0983202 
19510000   0.95488596 7.7160862e-05   0.47774131   0.03471436            0   0.44302695    1.4203929    1.8981342    4.5318916 
19515000    0.9851568 -2.8224131e-05   0.43489003  0.020772959            0   0.41411707    1.4654207    1.9003108   0.93692709 
19520000   0.92760997 5.3053255e-05   0.50540807  0.017499728            0   0.48790835    1.3798198    1.8852279    3.6961123 
19525000   0.95707119 9.4773068e-05   0.46412641  0.060796197            0   0.40333022    1.4236434    1.8877698    5.1226905 
19530000   0.96397247 5.2279009e-05    0.4743529   0.03346214            0   0.44089076    1.4339091    1.9082619    3.6927188 
19535000   0.99412162 -9.2399075e-05   0.44448093  0.022693795            0   0.42178714    1.4787559    1.9232368   -1.2306516 
19540000    1.0008879 4.8331332e-07   0.41707846 0.0054312432            0   0.41164722    1.4888207    1.9058992    1.9223962 
19545000   0.96548408 3.3554216e-05   0.46707037 0.0055326545            0   0.46153771    1.4361576    1.9032279    3.0485452 
19550000   0.99553065 1.8395785e-05   0.43428212  0.012467476            0   0.42181465    1.4808518     1.915134    2.5430434 
19555000   0.98248307 9.0111161e-05     0.433319  0.033256455            0   0.40006254    1.4614436    1.8947626    4.9705569 
19560000   0.95379427 2.3328249e-05   0.48713291  0.045757919            0     0.441375     1.418769    1.9059019    2.7021728 
19565000   0.95269567 2.8967177e-05    0.4819857  0.055684922            0   0.42630078    1.4171348    1.8991205    2.8878668 
19570000   0.97338638 2.0242241e-05   0.44463873  0.049079618            0   0.39555912    1.4479122     1.892551    2.5834861 
19575000   0.96282228 5.3649638e-05   0.46081561  0.034562747            0   0.42625286    1.4321981    1.8930138    3.7242547 
19580000    1.0023754 4.7159134e-05   0.40354343   0.02465021            0   0.37889322    1.4910333    1.8945768    3.5042752 
19585000   0.93059182 -4.9576529e-05   0.49513403  0.021134066            0   0.47399996    1.3842553    1.8793894   0.18717717 
19590000   0.93917504 1.189392e-05   0.50874893  0.012417464            0   0.49633146    1.3970229    1.9057718    2.3117509 
19595000   0.94581166 2.5902792e-05   0.49614402  0.025584193            0   0.47055982    1.4068948    1.9030389    2.7871875 
19600000    1.0010582 5.1382482e-07   0.41507345   0.03185239            0   0.38322106    1.4890741    1.9041475    1.9216861 
19605000    1.0184213 6.9645873e-05   0.40729863  0.024772284            0   0.38252634    1.5149016    1.9222003    4.2994461 
19610000   0.94754427 4.1477957e-05    0.5149536  0.038752754            0   0.47620085    1.4094721    1.9244257    3.3402066 
19615000    1.0090697 -0.0001154008   0.43420539  0.039419861            0   0.39478553    1.5009912    1.9351966   -2.0038175 
19620000    0.9801203 -9.3209083e-05   0.49718686  0.014259175            0   0.48292769    1.4579289    1.9551158   -1.2264209 
19625000    1.0397152 2.7402846e-05   0.40494445  0.017263295            0   0.38768116    1.5465764    1.9515209    2.8868714 
19630000   0.99682755 -6.9766466e-05   0.49546147  0.038239073            0    0.4572224     1.482781    1.9782425  -0.40311958 
19635000   0.96479348 -0.00014145164   0.54946495  0.038452342            0   0.51101261    1.4351303    1.9845953   -2.8436208 
19640000    1.0744788 6.8447927e-05   0.35776731  0.027496734            0   0.33027058    1.5982872    1.9560545    4.2924104 
19645000   0.99407973 0.0001070584   0.47377049   0.04825239            0    0.4255181    1.4786936    1.9524641    5.6067241 
19650000   0.95185397 -0.0001051002   0.54142582   0.03646302            0    0.5049628    1.4158828    1.9573086   -1.6301115 
19655000    0.9844871 -3.99768e-05    0.4792924  0.032428958            0   0.44686344    1.4644246     1.943717   0.57917552 
19660000   0.97142626 1.1485101e-05   0.51590218  0.012362619            0   0.50353956    1.4449966    1.9608987    2.3529235 
19665000    1.0275706 3.8185449e-05   0.43778771  0.019677978            0   0.41810973    1.5285113     1.966299    3.2696957 
19670000   0.99593517 0.00010909167   0.44584395  0.034002043            0   0.41184191    1.4814536    1.9272975    5.6509598 
19675000   0.90791508 1.2950111e-05   0.58160586  0.013241421            0   0.56836444    1.3505237    1.9321295      2.37416 
19680000    0.9192303 1.9790841e-05    0.5604676  0.069290804            0    0.4911768    1.3673551    1.9278227      2.60335 
19685000   0.97177229 6.2651945e-05   0.46727648  0.024286835            0   0.44298965    1.4455113    1.9127878    4.0513075 
19690000   0.92447577 9.2342462e-05   0.54282066  0.048473791            0   0.49434687    1.3751577    1.9179784    5.0699344 
19695000    0.9348377 5.9277932e-05   0.53504816  0.037237656            0    0.4978105    1.3905711    1.9256192    3.9489726 
19700000   0.98632223 -9.6201346e-05   0.46044091 0.0091878345            0   0.45125307    1.4671543    1.9275952   -1.3560774 
19705000   0.96439747 -2.7430976e-05   0.46071479  0.037521925            0   0.42319287    1.4345412     1.895256   0.95894539 
19710000    1.0073736 -6.6513335e-05   0.43674449  0.033587455            0   0.40315704    1.4984683    1.9352127  -0.33510911 
19715000   0.97061413 4.1518358e-05   0.52634712  0.031500705            0   0.49484641    1.4437885    1.9701356    3.3872956 
19720000    1.0435484 2.131071e-05   0.42849923  0.015152627            0   0.41334661    1.5522782    1.9807774     2.708183 
19725000    1.0359513 -3.1904175e-05    0.4442506  0.025697655            0   0.41855294    1.5409776    1.9852282   0.89623231 
19730000    1.0254626 -3.2860207e-05   0.47957607  0.044391116            0   0.43518495    1.5253756    2.0049517   0.88332332 
19735000   0.99447339 -1.2724927e-05   0.54706906  0.055971299            0   0.49109776    1.4792792    2.0263482     1.592004 
19740000   0.97127313 0.00010319598   0.58195141  0.043485593            0   0.53846582    1.4447688    2.0267202    5.5491429 
19745000    1.0144051 2.6963191e-05   0.53292416  0.019691909            0   0.51323225    1.5089276    2.0418517    2.9621953 
19750000   0.99999106 0.00010531683    0.5659236  0.022081712            0   0.54384189    1.4874867    2.0534103    5.6482248 
19755000    1.0530662 0.00012532088   0.48365798  0.019204176            0   0.46445381     1.566436    2.0500939    6.3277131 
19760000    1.0175809 0.00013517885   0.54022887  0.012439992            0   0.52778888    1.5136517    2.0538805    6.6679854 
19765000    1.0862337 0.00011638394   0.42601188  0.015261364            0   0.41075051    1.6157726    2.0417845    6.0143562 
19770000    1.0467741 9.7015938e-05   0.51685042  0.012448909            0   0.50440151    1.5570764    2.0739268    5.3854042 
19775000    1.0699061 0.00015039717   0.48298844 0.0094518462            0    0.4735366    1.5914853    2.0744738    7.2080305 
19780000    1.0961929 0.00017575453   0.45596561 0.0021471422            0   0.45381847    1.6305869    2.0865526    8.0856404 
19785000    1.0465664 0.00010431013   0.52437284 0.0076602885            0   0.51671255    1.5567675    2.0811403    5.6415928 
19790000    1.1168481 6.8110853e-06   0.41905948  0.023717711            0   0.39534177    1.6613116    2.0803711    2.3128561 
19795000    1.0876831 -1.1742871e-05   0.48398229  0.033258246            0   0.45072405    1.6179286    2.1019109    1.7010875 
19800000    1.0370485 -9.7387878e-05   0.55232793  0.032551771            0   0.51977616    1.5426097    2.0949376   -1.2292353 
19805000    1.0408274 -0.00013955657   0.54267458  0.042585905            0   0.50008868    1.5482308    2.0909054   -2.6726256 
19810000    1.0751144 -0.00010633832   0.51305398  0.033174589            0   0.47987939    1.5992326    2.1122866   -1.5173946 
19815000    1.0585713 -2.4317354e-05   0.55042327  0.014505475            0   0.53591779    1.5746248    2.1250481    1.2950157 
19820000     1.095438 6.6141903e-05   0.50615063  0.025921751            0   0.48022888     1.629464    2.1356146    4.3932583 
19825000    1.1125902 -2.7744485e-06   0.48840577  0.028559188            0   0.45984658     1.654978    2.1433837    2.0486826 
19830000     1.038161 4.4631956e-05   0.60359119  0.024828141            0   0.57876305    1.5442646    2.1478557    3.6712932 
19835000    1.0589398 -6.0757069e-05    0.5526067  0.014662347            0   0.53794435    1.5751729    2.1277796  0.053938282 
19840000     1.096056 -1.0285485e-05   0.50164596  0.056811089            0   0.44483487    1.6303834    2.1320293    1.7809514 
19845000    1.1199638 -4.7309504e-05    0.4600186   0.02016273            0   0.43985587    1.6659462    2.1259648   0.51113368 
19850000    1.0738295 -9.0277695e-05   0.51887075   0.01299126            0   0.50587949    1.5973214    2.1161922  -0.96528646 
19855000    1.0121404 -3.2794738e-05   0.59437845  0.029344328            0   0.56503413    1.5055588    2.0999373   0.98054352 
19860000    1.0856821 4.2622505e-06   0.49619588  0.015410907            0   0.48078497    1.6149521     2.111148    2.2566328 
19865000     1.111975 0.00011578719   0.48537602  0.014783385            0   0.47059264    1.6540627    2.1394388    6.0916414 
19870000    1.0784968 0.00013998224    0.5172382  0.035759136            0   0.48147907     1.604264    2.1215022    6.8995628 
19875000    1.0859034 7.7033113e-05   0.51223863  0.078628152            0   0.43361048    1.6152813    2.1275199    4.7569169 
19880000    1.1220807 -5.2196934e-05   0.46512781  0.023266562            0   0.44186125     1.669095    2.1342228   0.35256749 
19885000    1.0856077 -8.0775036e-05   0.50532145  0.035126993            0   0.47019446    1.6148414    2.1201628  -0.63695838 
19890000    1.0725816 -2.1676976e-05   0.52889999  0.029210799            0   0.49968919    1.5954652    2.1243652    1.3844577 
19895000     1.047182 -6.1779504e-05   0.54727099  0.014105399            0   0.53316559    1.5576832    2.1049542 -0.0037862174 
19900000    1.0623175 -2.1251385e-05   0.50345681  0.018872941            0   0.48458387    1.5801973    2.0836541    1.3582735 
19905000     1.071999 1.0685743e-05    0.4831241  0.022147172            0   0.46097693    1.5945985    2.0777226    2.4424626 
19910000    1.1288944 -0.00011826369   0.41974349  0.020996337            0   0.39874715    1.6792304    2.0989739   -1.9377599 
19915000     1.047824 -8.8673042e-05   0.51238249 0.0073506884            0    0.5050318    1.5586382    2.0710206  -0.95568586 
19920000    1.0641969 2.6797314e-05   0.48446672  0.024540382            0   0.45992634    1.5829928    2.0674595    2.9821412 
19925000    1.0696513 -9.3108207e-06   0.43609529  0.035438635            0   0.40065666    1.5911063    2.0272016    1.7093922 
19930000     1.069541 -1.5458785e-05    0.4524257   0.04682889            0   0.40559681    1.5909423     2.043368    1.5157081 
19935000    1.0580678 -8.0670149e-05   0.47020636  0.042514284            0   0.42769207    1.5738758    2.0440822   -0.7094589 
19940000    1.0232146 -7.9697506e-06   0.51282043 0.0069126005            0   0.50590783    1.5220317    2.0348521    1.7628179 
19945000    1.0229559 -2.5520865e-05   0.50680255  0.011122554            0      0.49568    1.5216469    2.0284495    1.1573373 
19950000    1.0533196 0.00011940745    0.4745373  0.027691961            0   0.44684534    1.5668129    2.0413502    6.1171246 
19955000    1.0645618 6.7938408e-05   0.45704014  0.028981452            0   0.42805868    1.5835357    2.0405759    4.3595402 
19960000    1.0336213 -8.692913e-05   0.45043625  0.034473409            0   0.41596284    1.5375117     1.987948  -0.97923298 
19965000    1.0498222 -2.0473353e-05   0.44172895  0.016762264            0   0.42496669    1.5616105    2.0033394    1.3045157 
19970000   0.98522733 3.3363004e-05   0.51802288  0.024399756            0   0.49362312    1.4655257    1.9835485    3.1223391 
19975000    1.0521871 3.7535375e-06   0.42891288   0.02880374            0   0.40010914    1.5651283    1.9940412    2.1221619 
19980000    1.0130645 -7.032806e-05   0.46550304   0.01897108            0   0.44653196    1.5069335    1.9724365  -0.42809458 
19985000   0.98061857 -7.5192301e-05   0.50184396  0.027174661            0    0.4746693    1.4586701    1.9605141  -0.60604978 
19990000    1.0084161 3.862588e-05   0.49587768   0.02044863            0   0.47542905    1.5000189    1.9958966    3.3143267 
19995000    1.0444118 7.6449479e-05   0.44834292  0.026512241            0   0.42183068    1.5535626    2.0019055    4.6113811 
20000000    1.0514807 1.9497938e-05   0.43054844  0.016276591            0   0.41427185    1.5640775     1.994626    2.6601556 
Loop time of 227.36 on 1 procs for 20000000 steps with 120 atoms

Performance: 76002.933 tau/day, 87966.357 timesteps/s
99.6% CPU use with 1 MPI tasks x no OpenMP threads

MPI task timing breakdown:
Section |  min time  |  avg time  |  max time  |%varavg| %total
---------------------------------------------------------------
Pair    | 11.628     | 11.628     | 11.628     |   0.0 |  5.11
Bond    | 34.457     | 34.457     | 34.457     |   0.0 | 15.16
Neigh   | 20.108     | 20.108     | 20.108     |   0.0 |  8.84
Comm    | 50.585     | 50.585     | 50.585     |   0.0 | 22.25
Output  | 0.63606    | 0.63606    | 0.63606    |   0.0 |  0.28
Modify  | 101.53     | 101.53     | 101.53     |   0.0 | 44.65
Other   |            | 8.42       |            |       |  3.70

Nlocal:        120.000 ave         120 max         120 min
Histogram: 1 0 0 0 0 0 0 0 0 0
Nghost:        0.00000 ave           0 max           0 min
Histogram: 1 0 0 0 0 0 0 0 0 0
Neighs:        45.0000 ave          45 max          45 min
Histogram: 1 0 0 0 0 0 0 0 0 0

Total # of neighbors = 45
Ave neighs/atom = 0.375
Ave special neighs/atom = 5.9000000
Neighbor list builds = 4083
Dangerous builds = 0
write_restart restart.equil
System init for write_restart ...
WARNING: Communication cutoff 1.4200000000000002 is shorter than a bond length based estimate of 1.8. This may lead to errors. (../comm.cpp:667)
#--------------End of Input file ------------------
Total wall time: 0:03:47
