LAMMPS (29 Oct 2020)
###################### polyelectrolyte complexation ######################
clear

#Initialization
#------------------------------------
units				lj
dimension			3
atom_style			full
boundary			p p p

#Atom Definition
#-------------------------------------
read_data			data.complexation
Reading data file ...
  orthogonal box = (-80.000000 -80.000000 -80.000000) to (80.000000 80.000000 80.000000)
  1 by 1 by 1 MPI processor grid
  reading atoms ...
  40 atoms
  scanning bonds ...
  1 = max bonds/atom
  reading bonds ...
  39 bonds
Finding 1-2 1-3 1-4 neighbors ...
  special bond factors lj:    0.0      0.0      0.0     
  special bond factors coul:  0.0      0.0      0.0     
     2 = max # of 1-2 neighbors
     2 = max # of 1-3 neighbors
     4 = max # of 1-4 neighbors
     6 = max # of special neighbors
  special bonds CPU = 0.000 seconds
  read_data CPU = 0.002 seconds

#Force definition
#----------------------------------------------
#Bond definition
bond_style			harmonic
bond_coeff			1 5000 1
#Pair definition
special_bonds	lj 0 1 1
Finding 1-2 1-3 1-4 neighbors ...
  special bond factors lj:    0.0      1.0      1.0     
  special bond factors coul:  0.0      0.0      0.0     
     2 = max # of 1-2 neighbors
     2 = max # of 1-3 neighbors
     4 = max # of 1-4 neighbors
     6 = max # of special neighbors
  special bonds CPU = 0.000 seconds
pair_style		 lj/cut 1.12
pair_modify 		 shift yes
pair_coeff	1 1 1 1 1.12

#Timestep etc
#--------------------------------------------
timestep		1e-05
run_style		verlet
velocity		all	create	1	12

#Fix
#---------------------------------------
group polymers type 1
40 atoms in group polymers
fix 1 all nve
fix 2 all langevin 1	1	10	12
fix 3 polymers recenter INIT INIT INIT units box

#Dump
#------------------------------------------------
compute  1 all gyration
variable  myRg2 equal c_1
variable  i equal step
fix  mythermofile all print 5000 "$i ${myRg2}" file radius_of_gyration.dat screen no

thermo_style		 custom step temp press pe evdwl ecoul ebond ke etotal enthalpy
thermo 	5000
dump	3 all custom 5000 dump.lammpstrj id mol type xu yu zu
run		20000000
Neighbor list info ...
  update every 1 steps, delay 10 steps, check yes
  max neighbors/atom: 2000, page size: 100000
  master list distance cutoff = 1.42
  ghost atom cutoff = 1.42
  binsize = 0.71, bins = 226 226 226
  1 neighbor lists, perpetual/occasional/extra = 1 0 0
  (1) pair lj/cut, perpetual
      attributes: half, newton on
      pair build: half/bin/newton
      stencil: half/bin/3d/newton
      bin: standard
WARNING: Communication cutoff 1.4200000000000002 is shorter than a bond length based estimate of 1.8. This may lead to errors. (../comm.cpp:667)
Per MPI rank memory allocation (min/avg/max) = 54.71 | 54.71 | 54.71 Mbytes
Step Temp Press PotEng E_vdwl E_coul E_bond KinEng TotEng Enthalpy 
       0            1 9.5214844e-06            0            0            0            0       1.4625       1.4625       2.4375 
    5000   0.82800426 -0.00014236057   0.26423949            0            0   0.26423949    1.2109562    1.4751957   -13.102527 
   10000   0.54516927 -0.00032248396   0.70532591            0            0   0.70532591   0.79731005     1.502636   -31.519722 
   15000   0.84493519 -2.1366514e-05   0.28234364            0            0   0.28234364    1.2357177    1.5180614  -0.66986969 
   20000   0.85654483 6.8120794e-05   0.27112352            0            0   0.27112352    1.2526968    1.5238203    8.4993896 
   25000   0.76145692 -0.0001436492   0.38285271            0            0   0.38285271    1.1136307    1.4964835   -13.213194 
   30000   0.84331329 -8.435974e-05   0.26942577            0            0   0.26942577    1.2333457    1.5027715   -7.1356659 
   35000   0.81058716 0.00010665251   0.32683652            0            0   0.32683652    1.1854837    1.5123202    12.433538 
   40000   0.79454988 0.00014859485   0.32121787            0            0   0.32121787    1.1620292    1.4832471    16.699359 
   45000   0.68660888 -0.00019178935   0.46179874            0            0   0.46179874    1.0041655    1.4659642   -18.173265 
   50000   0.85390045 -7.3440008e-06   0.24770399            0            0   0.24770399    1.2488294    1.4965334   0.74450772 
   55000   0.75316089 0.0001710195   0.42785488            0            0   0.42785488    1.1014978    1.5293527    19.041749 
   60000   0.91693824 -2.8182454e-05   0.22265406            0            0   0.22265406    1.3410222    1.5636762    -1.322207 
   65000    0.8149414 -0.00014200993   0.35226135            0            0   0.35226135    1.1918518    1.5441132   -12.997704 
   70000    0.7987251 2.8257551e-05   0.36546984            0            0   0.36546984    1.1681355    1.5336053    4.4271785 
   75000   0.82539906 9.7294768e-05   0.33284505            0            0   0.33284505    1.2071461    1.5399912    11.502975 
   80000   0.85180723 -0.00010965365   0.33817034            0            0   0.33817034    1.2457681    1.5839384   -9.6445952 
   85000    0.7972373 1.2426231e-05   0.40063692            0            0   0.40063692    1.1659596    1.5665965    2.8390425 
   90000     0.856551 2.213968e-05   0.29695205            0            0   0.29695205    1.2527058    1.5496579    3.8167612 
   95000   0.83911884 5.7261742e-05   0.31100409            0            0   0.31100409    1.2272113    1.5382154    7.4018178 
  100000   0.68563178 -3.229694e-05   0.52245079            0            0   0.52245079    1.0027365    1.5251873   -1.7820194 
  105000   0.84418249 -6.7040644e-05     0.320132            0            0     0.320132    1.2346169    1.5547489   -5.3102131 
  110000   0.71729266 0.00014004253   0.52080218            0            0   0.52080218    1.0490405    1.5698427    15.910197 
  115000   0.81714156 -4.5367579e-05   0.34291912            0            0   0.34291912    1.1950695    1.5379887   -3.1076514 
  120000   0.67398479 -6.0553491e-06   0.51846167            0            0   0.51846167   0.98570276    1.5041644   0.88409667 
  125000   0.71329326 1.0759378e-05   0.43704648            0            0   0.43704648    1.0431914    1.4802379    2.5819981 
  130000   0.71838534 8.1726491e-05   0.47283537            0            0   0.47283537    1.0506386    1.5234739    9.8922666 
  135000   0.69688424 -0.00010117199   0.49940693            0            0   0.49940693    1.0191932    1.5186001   -8.8414115 
  140000   0.77653164 1.9241217e-05    0.3652307            0            0    0.3652307    1.1356775    1.5009082    3.4712088 
  145000   0.83436123 3.5394405e-05   0.30138504            0            0   0.30138504    1.2202533    1.5216383    5.1460254 
  150000   0.89594369 2.2683609e-05   0.19586567            0            0   0.19586567    1.3103176    1.5061833    3.8289848 
  155000   0.70944457 -9.8793294e-05   0.44823714            0            0   0.44823714    1.0375627    1.4857998   -8.6306335 
  160000    0.6922335 0.00010313984   0.47302082            0            0   0.47302082    1.0123915    1.4854123    12.046932 
  165000   0.79302048 5.9822506e-05   0.31634732            0            0   0.31634732    1.1597925    1.4761398    7.6019644 
  170000   0.71744963 -0.0001692529     0.449497            0            0     0.449497    1.0492701    1.4987671    -15.83273 
  175000    0.8699726 3.5203561e-05   0.21759162            0            0   0.21759162    1.2723349    1.4899265    5.0947712 
  180000    0.7420808 0.00011771923   0.44566962            0            0   0.44566962    1.0852932    1.5309628    13.585412 
  185000    0.7872848 -8.6071292e-05   0.34721672            0            0   0.34721672     1.151404    1.4986207   -7.3150796 
  190000   0.78411853 -5.9280098e-05   0.35165798            0            0   0.35165798    1.1467734    1.4984313   -4.5718507 
  195000   0.77236615 8.4625535e-05   0.36052016            0            0   0.36052016    1.1295855    1.4901057     10.15576 
  200000   0.77755414 -1.274679e-05   0.35706476            0            0   0.35706476    1.1371729    1.4942377   0.18896641 
  205000   0.82902593 -6.0869022e-05    0.2964512            0            0    0.2964512    1.2124504    1.5089016   -4.7240863 
  210000    0.7240216 4.5594129e-05   0.42078309            0            0   0.42078309    1.0588816    1.4796647    6.1485034 
  215000   0.85132001 -6.8097189e-05   0.25382044            0            0   0.25382044    1.2450555     1.498876   -5.4742762 
  220000   0.71784525 3.3964621e-05   0.42378246            0            0   0.42378246    1.0498487    1.4736311    4.9516083 
  225000   0.75063751 2.1889832e-05   0.32987889            0            0   0.32987889    1.0978074    1.4276863    3.6692051 
  230000   0.73925097 -1.1876271e-05    0.3668325            0            0    0.3668325    1.0811545    1.4479871    0.2318569 
  235000   0.83359463 -5.1389099e-05   0.22339292            0            0   0.22339292    1.2191321    1.4425251   -3.8197187 
  240000   0.70281303 6.304329e-05   0.41427969            0            0   0.41427969    1.0278641    1.4421437    7.8977766 
  245000   0.71363808 -7.1069235e-05   0.36282309            0            0   0.36282309    1.0436957    1.4065188   -5.8709709 
  250000   0.64193979 -2.6506978e-05   0.46446978            0            0   0.46446978   0.93883694    1.4033067   -1.3110078 
  255000   0.69282032  5.02052e-05   0.38825356            0            0   0.38825356    1.0132497    1.4015033    6.5425158 
  260000   0.75650184 -5.4368258e-05   0.29704723            0            0   0.29704723    1.1063839    1.4034312   -4.1638785 
  265000   0.73479873 7.3072022e-05   0.33504439            0            0   0.33504439    1.0746431    1.4096875    8.8922626 
  270000   0.60219465 -5.3688916e-05   0.46802434 0.00022613038            0   0.46779821   0.88070967     1.348734    -4.149011 
  275000    0.6465412 3.324261e-05   0.43349655 0.00095831776            0   0.43253823    0.9455665    1.3790631    4.7831063 
  280000   0.68356695 -1.5746993e-05   0.38656376 0.0008820119            0   0.38568175   0.99971666    1.3862804  -0.22621163 
  285000   0.69792331 2.465994e-05   0.34594165 0.00018848857            0   0.34575316    1.0207128    1.3666545    3.8918323 
  290000   0.67716142 6.382501e-05   0.40541039            0            0   0.40541039   0.99034858     1.395759    7.9314399 
  295000   0.60818566 1.0491943e-05   0.52965853            0            0   0.52965853   0.88947153    1.4191301     2.493505 
  300000   0.68970745 -1.0762271e-05   0.40671579 0.00031697122            0   0.40639882    1.0086971    1.4154129   0.31335641 
  305000   0.66011687 -4.8169638e-05   0.43675084 0.0015745424            0    0.4351763   0.96542092    1.4021718   -3.5303992 
  310000   0.76809397 -4.8487841e-05   0.29455332 0.00089824494            0   0.29365508    1.1233374    1.4178908   -3.5472642 
  315000   0.66467896 3.1376739e-05   0.46013819  0.002745984            0    0.4573922   0.97209298    1.4322312    4.6452093 
  320000   0.65101656 -1.2498978e-05   0.46297821 0.00061376307            0   0.46236445   0.95211172    1.4150899   0.13519463 
  325000   0.74247383 9.3190955e-05   0.35044396 0.00053237413            0   0.34991159     1.085868    1.4363119    10.979066 
  330000   0.81062325 -4.2532676e-05   0.25702795 0.00017599816            0   0.25685195    1.1855365    1.4425644   -2.9127815 
  335000   0.79631498 3.9308686e-05   0.28101854            0            0   0.28101854    1.1646107    1.4456292    5.4708386 
  340000   0.75040032 1.6155132e-05   0.32468705            0            0   0.32468705    1.0974605    1.4221475     3.076433 
  345000   0.66794316 -9.7654772e-05   0.41856682 0.0010307582            0   0.41753606   0.97686688    1.3954337   -8.6044149 
  350000   0.73623738 0.00010328053   0.33791554 0.0081186267            0   0.32979691    1.0767472    1.4146627    11.990589 
  355000   0.70906565 -0.00010461779   0.39280069  0.015007533            0   0.37779316    1.0370085    1.4298092   -9.2830528 
  360000   0.74408545 2.442985e-05   0.35769257 0.0074990471            0   0.35019352     1.088225    1.4459175    3.9475341 
  365000   0.75926477  -4.3689e-05    0.3441575  0.016376612            0   0.32778088    1.1104247    1.4545822   -3.0191714 
  370000   0.73074455 1.115931e-05    0.3792935  0.020311682            0   0.35898182    1.0687139    1.4480074    2.5907208 
  375000   0.74287591 1.1165621e-05   0.39216186  0.005127433            0   0.38703443     1.086456    1.4786179    2.6219775 
  380000   0.78004078 5.0924363e-06   0.39558216 0.00016645417            0   0.39541571    1.1408096    1.5363918    2.0578573 
  385000   0.79439976 1.3057957e-05   0.41709581 0.0017539429            0   0.41534186    1.1618096    1.5789055    2.9160403 
  390000   0.76779446 -0.00011815933    0.4332495 0.00095782225            0   0.43229168    1.1228994    1.5561489   -10.543366 
  395000   0.83766373 5.5946807e-06   0.31918193 0.0018027893            0   0.31737915    1.2250832    1.5442651    2.1171604 
  400000   0.79329323 5.8252958e-05    0.3896884 0.0017832538            0   0.38790514    1.1601913    1.5498797    7.5149827 
  405000   0.74575934 3.5630555e-05   0.43823437 7.2147158e-05            0   0.43816222     1.090673    1.5289074    5.1774762 
  410000   0.80068627 1.2553874e-05   0.38323271            0            0   0.38323271    1.1710037    1.5542364    2.8397531 
  415000    0.7506841 -6.9265347e-06   0.47194345            0            0   0.47194345    1.0978755     1.569819    0.8605418 
  420000   0.74581665 -4.9521782e-05   0.45916545            0            0   0.45916545    1.0907568    1.5499223   -3.5211082 
  425000   0.70136873 -3.0146995e-05   0.49479402 0.00010412157            0    0.4946899    1.0257518    1.5205458   -1.5665065 
  430000   0.75645644 3.4517497e-05   0.40340975 0.0067275168            0   0.39668223    1.1063175    1.5097273    5.0443189 
  435000   0.80800867 -4.4825556e-05   0.35283724  0.019495168            0   0.33334207    1.1817127    1.5345499    -3.055587 
  440000   0.74124541 5.6113156e-05    0.4593226  0.007800591            0     0.451522    1.0840714     1.543394    7.2893811 
  445000   0.71877772 -0.00011660387   0.46014965 4.9033839e-05            0   0.46010062    1.0512124    1.5113621   -10.428874 
  450000   0.71908051 0.00010830397   0.47949302 0.00064338671            0   0.47884963    1.0516553    1.5311483    12.621475 
  455000   0.80864739 -7.4027778e-05   0.35961254  0.001198727            0   0.35841381    1.1826468    1.5422593   -6.0381851 
  460000   0.80884492 2.0029348e-05   0.37666655 0.0081732637            0   0.36849329    1.1829357    1.5596022    3.6106074 
  465000     0.637905 5.5054119e-05   0.59547959  0.055590429            0   0.53988916   0.93293607    1.5284157    7.1659574 
  470000   0.74243153 -3.6879202e-05   0.42946868   0.02120066            0   0.40826802    1.0858061    1.5152748   -2.2611555 
  475000   0.76010484 -8.9726237e-05    0.3791985 0.0041988706            0   0.37499963    1.1116533    1.4908518   -7.6971148 
  480000   0.74215741 7.3971076e-05   0.38588805  0.011902089            0   0.37398596    1.0854052    1.4712933    9.0459314 
  485000   0.72146148 -4.5883414e-05   0.40808698  0.013458325            0   0.39462866    1.0551374    1.4632244   -3.2352372 
  490000   0.69235955 2.9364667e-05   0.42183534  0.015381801            0   0.40645354    1.0125758    1.4344112    4.4413531 
  495000   0.60896065 -2.2084365e-05    0.5210192 0.0094375969            0    0.5115816   0.89060495    1.4116242  -0.84981485 
  500000   0.67706294 1.9805502e-05   0.41821335 0.0042350207            0   0.41397833   0.99020455    1.4084179    3.4365013 
  505000   0.68290645 -3.7567706e-05   0.40480711  0.010291382            0   0.39451573   0.99875069    1.4035578   -2.4433753 
  510000   0.68189948 8.6711956e-05   0.42973205  0.015280343            0    0.4144517   0.99727799      1.42701    10.306314 
  515000   0.69084379 -5.7998083e-05   0.38908731  0.014005024            0   0.37508229     1.010359    1.3994464   -4.5395573 
  520000     0.669364 7.612047e-05   0.42946791 0.0053086437            0   0.42415927   0.97894485    1.4084128    9.2031489 
  525000    0.6861712 -6.7333687e-05   0.44436746 0.00091326006            0    0.4434542    1.0035254    1.4478928   -5.4470767 
  530000   0.73994858 2.940304e-05   0.38129465            0            0   0.38129465    1.0821748    1.4634695    4.4743408 
  535000   0.72037662 -0.00015872751   0.38632526            0            0   0.38632526    1.0535508    1.4398761   -14.813821 
  540000   0.74084491 -1.4067064e-05   0.32789622            0            0   0.32789622    1.0834857    1.4113819 -0.029085494 
  545000   0.74124238 3.4728979e-05   0.32366414            0            0   0.32366414     1.084067    1.4077311    4.9639785 
  550000   0.68909335 -0.00010235859   0.37929841            0            0   0.37929841     1.007799    1.3870974   -9.0944224 
  555000   0.67647155 0.00010661902   0.41871076            0            0   0.41871076   0.98933963    1.4080504    12.325838 
  560000   0.78091702 -1.4569859e-05   0.26099101 0.0010242134            0    0.2599668    1.1420911    1.4030822 -0.088871448 
  565000   0.69714035 -3.0443462e-05   0.40720907 0.0092308971            0   0.39797818    1.0195678    1.4267768   -1.6906337 
  570000   0.68565366 3.5430441e-05   0.43251653 0.0080764732            0   0.42444006    1.0027685     1.435285    5.0633622 
  575000   0.69654449 -5.98306e-05   0.39869885 0.00049620145            0   0.39820265    1.0186963    1.4173952   -4.7092583 
  580000   0.73822347 2.9637103e-05   0.36810174            0            0   0.36810174    1.0796518    1.4477536    4.4825929 
  585000   0.68833197 -2.0726431e-05    0.4250924            0            0    0.4250924    1.0066855    1.4317779  -0.69060865 
  590000   0.73172331 -1.9555332e-05   0.37730198            0            0   0.37730198    1.0701453    1.4474473  -0.55501869 
  595000   0.78879475 -1.0705321e-05   0.30127502 1.0828174e-05            0    0.3012642    1.1536123    1.4548874   0.35866253 
  600000   0.72238161 6.5873011e-06   0.38195357 0.0061396158            0   0.37581396    1.0564831    1.4384367    2.1129763 
  605000   0.67751109 8.8527219e-05   0.46712938  0.030353192            0   0.43677618   0.99085997    1.4579893    10.523177 
  610000    0.7349814 -6.2667974e-05    0.4219796  0.021018628            0   0.40096097    1.0749103    1.4968899   -4.9203106 
  615000   0.78893281 -1.7694551e-05   0.35263423 0.0091142911            0   0.34351994    1.1538142    1.5064485  -0.30547353 
  620000   0.67619436 -2.4718411e-05   0.52940066  0.020059848            0   0.50934082   0.98893425    1.5183349   -1.0128304 
  625000   0.74383475 2.2690256e-05   0.45769082  0.014679901            0   0.44301092    1.0878583    1.5455491    3.8690314 
  630000   0.74890345 1.8256731e-05   0.45948424 0.0088164293            0   0.45066781    1.0952713    1.5547555    3.4242448 
  635000   0.78705688 6.9367848e-05   0.39726093 0.0060447337            0    0.3912162    1.1510707    1.5483316    8.6515992 
  640000   0.76551963 5.7853081e-05   0.43117786  0.010543613            0   0.42063425    1.1195725    1.5507503    7.4749058 
  645000   0.76636851 3.7001844e-05   0.39740376  0.017100026            0   0.38030374    1.1208139    1.5182177    5.3072066 
  650000   0.76564773 7.4179702e-05   0.41885527  0.014871336            0   0.40398393    1.1197598    1.5386151    9.1346165 
  655000   0.72072243 -3.2242406e-05   0.45526215 0.0054101506            0     0.449852    1.0540566    1.5093187   -1.7923036 
  660000   0.78700446 -2.9099255e-05   0.35239582 0.0030834113            0   0.34931241     1.150994    1.5033898   -1.4763739 
  665000   0.73814977 -4.4119904e-05   0.37832837 0.00060087413            0   0.37772749     1.079544    1.4578724   -3.0600058 
  670000   0.70000717 2.7148298e-05   0.41579654 0.00021385758            0   0.41558268    1.0237605     1.439557    4.2195427 
  675000   0.70668202 -3.0818749e-05   0.40507709 0.00035115023            0   0.40472594    1.0335224    1.4385995   -1.7172404 
  680000   0.73828061 3.8220102e-05   0.41521191 0.00029415906            0   0.41491775    1.0797354    1.4949473    5.4086857 
  685000   0.77305265 -7.8741943e-06   0.35174199 3.3947792e-05            0   0.35170804    1.1305895    1.4823315   0.67601399 
  690000   0.79494824 -3.3177112e-05   0.33747216 0.0023898666            0    0.3350823    1.1626118     1.500084   -1.8972523 
  695000   0.70432178 1.6754175e-05   0.43508009 0.0072677488            0   0.42781234    1.0300706    1.4651507    3.1807783 
  700000   0.72871645 -8.9556388e-05   0.43702553 0.0047660206            0   0.43225951    1.0657478    1.5027733   -7.6678008 
  705000   0.83569672 -1.8695555e-05   0.28609748 0.00091280093            0   0.28518468    1.2222064    1.5083039  -0.40612088 
  710000   0.78856499 6.7484586e-05   0.43061203            0            0   0.43061203    1.1532763    1.5838883    8.4943099 
  715000   0.77305213 -3.2494256e-07   0.43879421 0.0002230875            0   0.43857113    1.1305887     1.569383    1.5361088 
  720000    0.8577922 -2.480053e-06   0.31674393 0.0024294855            0   0.31431444    1.2545211     1.571265    1.3173076 
  725000   0.78293437 9.7024796e-06   0.41422051   0.00298015            0   0.41124036    1.1450415     1.559262    2.5527959 
  730000    0.8164176 -2.0239001e-05   0.35774958  0.001686461            0   0.35606312    1.1940107    1.5517603  -0.52071341 
  735000   0.82015336 -3.1373577e-05   0.38021216  0.015313234            0   0.36489893    1.1994743    1.5796864   -1.6329678 
  740000   0.76172265 2.1610436e-05    0.5132729  0.046779727            0   0.46649318    1.1140194    1.6272923    3.8402009 
  745000   0.88916217 1.8752296e-05   0.34460534  0.012182927            0   0.33242242    1.3003997     1.645005    3.5652402 
  750000   0.89144421 2.3591454e-05   0.35366586  0.029402313            0   0.32426355    1.3037372     1.657403    4.0731679 
  755000   0.88627885 7.474491e-07   0.39269138 0.0096701884            0   0.38302119    1.2961828    1.6888742     1.765413 
  760000   0.89322661 -3.5558116e-05   0.37064245 0.0019451606            0   0.36869729    1.3063439    1.6769864   -1.9641647 
  765000   0.78712649 8.2432778e-06   0.51250396  0.012845446            0   0.49965851    1.1511725    1.6636764    2.5077881 
  770000   0.87907624 3.4616016e-05   0.41122666  0.017621019            0   0.39360564     1.285649    1.6968757    5.2415557 
  775000   0.84349034 1.1551615e-05   0.48805522  0.014184693            0   0.47387053    1.2336046    1.7216598    2.9045452 
  780000   0.83924066 2.6002398e-05   0.53734291   0.03870487            0   0.49863804    1.2273895    1.7647324    4.4273779 
  785000   0.89535052 1.5002587e-05   0.47524347   0.09058885            0   0.38465462    1.3094501    1.7846936    3.3209585 
  790000   0.90424181 -9.2796392e-06   0.45213956  0.053262798            0   0.39887676    1.3224536    1.7745932   0.82435815 
  795000   0.94580934 -1.9180499e-05   0.39269465  0.013140955            0    0.3795537    1.3832462    1.7759408  -0.18814234 
  800000   0.96598135 -2.4810084e-05    0.3791652 0.0077305475            0   0.37143466    1.4127477    1.7919129  -0.74863972 
  805000   0.89826776 2.9462371e-05   0.44290907 0.0058689359            0   0.43704013    1.3137166    1.7566257    4.7735725 
  810000   0.87243372 8.828199e-05   0.49861235 0.0050607276            0   0.49355162    1.2759343    1.7745467    10.814622 
  815000   0.98424907 9.5835613e-05   0.36524578 0.0061680922            0   0.35907769    1.4394643    1.8047101    11.618277 
  820000   0.96403268 -4.9173182e-06   0.40984371 0.0034874874            0   0.40635622    1.4098978    1.8197415    1.3162081 
  825000   0.89497069 -4.8541843e-05   0.57273078 0.0040274045            0   0.56870338    1.3088946    1.8816254   -3.0890593 
  830000    0.9921033 3.5734378e-05    0.4004627 0.0078629198            0   0.39259978    1.4509511    1.8514138    5.5106141 
  835000   0.90669572 5.3236644e-05   0.49243535  0.010236932            0   0.48219842    1.3260425    1.8184778    7.2699102 
  840000    1.0013916 -1.556065e-05   0.37006417 0.0074642629            0   0.36259991    1.4645352    1.8345993   0.24118876 
  845000    0.8951449 -9.3267334e-05   0.49897699 0.00053431781            0   0.49844268    1.3091494    1.8081264   -7.7424486 
  850000   0.96411781 -9.6956538e-06    0.3691681 0.00047819301            0    0.3686899    1.4100223    1.7791904   0.78635544 
  855000   0.89208372 2.8301551e-05   0.49950093 0.0071717083            0   0.49232922    1.3046724    1.8041734    4.7022522 
  860000   0.92816357 -7.3519064e-05   0.45043527   0.03535345            0   0.41508182    1.3574392    1.8078745   -5.7204777 
  865000   0.89090914 1.0874353e-06   0.48381467  0.034334148            0   0.44948052    1.3029546    1.7867693    1.8981227 
  870000    0.9379948 5.928101e-05   0.42421669  0.025660482            0   0.39855621    1.3718174    1.7960341    7.8664095 
  875000   0.96843759 4.2206972e-06   0.40849242  0.011009636            0   0.39748279      1.41634    1.8248324    2.2570318 
  880000   0.96451239 -3.7953431e-05   0.44457127  0.011466908            0   0.43310436    1.4105994    1.8551706   -2.0312606 
  885000   0.90302442 -1.5199493e-06   0.54651573  0.063791316            0   0.48272442    1.3206732    1.8671889    1.7115461 
  890000   0.83228239 6.6726613e-05   0.65855658  0.030688101            0   0.62786848     1.217213    1.8757696    8.7085747 
  895000    0.9978917 3.8254211e-05   0.40778544 0.0014203195            0   0.40636512    1.4594166    1.8672021    5.7844332 
  900000   0.86388452 2.7010058e-05   0.61325215 0.0075390331            0   0.60571312    1.2634311    1.8766833    4.6425132 
  905000   0.93205457 0.00015167842   0.49265624  0.019008852            0   0.47364738    1.3631298    1.8557861    17.387657 
  910000   0.95835816 0.00011776757   0.47374857  0.023487212            0   0.45026136    1.4015988    1.8753474    13.934746 
  915000   0.85879783 -2.6678342e-06    0.6371238  0.052206321            0   0.58491748    1.2559918    1.8931156    1.6199294 
  920000    0.9991062 2.025571e-05   0.49298056  0.036343801            0   0.45663676    1.4611928    1.9541734    4.0283581 
  925000   0.94609742 0.00010798713   0.56218532  0.050989403            0   0.51119592    1.3836675    1.9458528    13.003735 
  930000    1.0061446 2.2032144e-05   0.46680895  0.018776247            0   0.44803271    1.4714865    1.9382955     4.194387 
  935000   0.98513146 -0.0001183586   0.47610664 0.0027698849            0   0.47333675    1.4407548    1.9168614   -10.203059 
  940000   0.95080143 -4.036396e-06   0.51456088 0.0012762315            0   0.51328465    1.3905471     1.905108     1.491781 
  945000   0.96770896 1.0242256e-05    0.4327034 0.0091027364            0   0.42360066    1.4152744    1.8479778    2.8967848 
  950000   0.93537542 -6.0830254e-05   0.50491279  0.017768958            0   0.48714384    1.3679865    1.8728993   -4.3561186 
  955000   0.88884725 7.4509021e-05   0.57946319 0.0081056547            0   0.57135753    1.2999391    1.8794023    9.5091261 
  960000   0.90863099 7.7188011e-05   0.50714616 0.00026435041            0   0.50688181    1.3288728     1.836019    9.7400714 
  965000   0.83092367 -1.50238e-05   0.65764294 0.0053032423            0    0.6523397    1.2152259    1.8728688   0.33443165 
  970000   0.99167705 2.4422516e-05     0.422004  0.016991818            0   0.40501218    1.4503277    1.8723317    4.3731974 
  975000   0.87214313 -5.6879955e-05   0.59035894  0.022539439            0   0.56781951    1.2755093    1.8658683   -3.9586392 
  980000   0.86821769 -0.00011744084   0.54265174  0.010457236            0   0.53219451    1.2697684    1.8124201   -10.213521 
  985000   0.92358969 -7.6447538e-05   0.48210709 0.0031452129            0   0.47896188    1.3507499     1.832857   -5.9953709 
  990000   0.87806026 5.6021815e-05     0.580395 0.0052125157            0   0.57518249    1.2841631    1.8645581     7.601192 
  995000   0.90026835 0.00010235658   0.55966439 0.0075552129            0   0.55210918    1.3166425    1.8763069     12.35762 
 1000000    1.0215093 2.3058532e-05   0.37169854 0.0096330176            0   0.36206552    1.4939573    1.8656558    4.2268495 
 1005000   0.81632483 -0.00010806155   0.66727942  0.031633514            0   0.63564591    1.1938751    1.8611545   -9.2043481 
 1010000   0.90524588 -0.00013996834   0.52287319  0.022968222            0   0.49990497    1.3239221    1.8467953   -12.485962 
 1015000   0.97622188 6.3388234e-05   0.40909909 0.0013872317            0   0.40771186    1.4277245    1.8368236    8.3277788 
 1020000   0.86447107 0.0001210895   0.52928247 0.00047822337            0   0.52880425    1.2642889    1.7935714    14.193136 
 1025000   0.92242065 -8.0197739e-07   0.45004072 0.0024087964            0   0.44763192    1.3490402    1.7990809    1.7169584 
 1030000   0.85981384 1.3094933e-05   0.54882728  0.004287893            0   0.54453939    1.2574777     1.806305    3.1472261 
 1035000   0.89384096 6.5269209e-05   0.51509522 0.00067248972            0   0.51442273    1.3072424    1.8223376    8.5059046 
 1040000   0.81783668 2.1240301e-05    0.5873851            0            0    0.5873851    1.1960861    1.7834713    3.9584781 
 1045000   0.86284637 -4.7011931e-05   0.49136678 0.0026457707            0   0.48872101    1.2619128    1.7532796   -3.0607422 
 1050000   0.88652533 7.030035e-06   0.50377668 0.0026454942            0   0.50113119    1.2965433      1.80032    2.5201956 
 1055000   0.89053969 2.991142e-05   0.47285093            0            0   0.47285093    1.3024143    1.7752652    4.8381946 
 1060000   0.80854184 -8.7517309e-05   0.58837189            0            0   0.58837189    1.1824924    1.7708643   -7.1909082 
 1065000   0.85289935 -6.8526982e-05   0.50285882 0.0019703659            0   0.50088846    1.2473653    1.7502241   -5.2669389 
 1070000   0.87288316 -2.0031688e-05   0.49934554  0.011784496            0   0.48756104    1.2765916    1.7759372  -0.27530764 
 1075000   0.77583154 -7.0224325e-05   0.62186149  0.011519683            0    0.6103418    1.1346536    1.7565151   -5.4344558 
 1080000   0.86045652 6.0133412e-05   0.46080711 0.0004935408            0   0.46031357    1.2584177    1.7192248    7.8768861 
 1085000   0.83144053 3.6235804e-05   0.47885413            0            0   0.47885413    1.2159818    1.6948359    5.4053822 
 1090000   0.81713746 -9.6166828e-05   0.49746157 0.0024776565            0   0.49498392    1.1950635    1.6925251   -8.1549581 
 1095000   0.85437874 1.9287815e-05   0.48006641  0.016447708            0   0.46361871    1.2495289    1.7295953    3.7046676 
 1100000    0.7968989 4.3438034e-05   0.52925078  0.012327588            0   0.51692319    1.1654646    1.6947154    6.1427701 
 1105000   0.77791181 0.00011726077   0.50379842 0.0032816869            0   0.50051673     1.137696    1.6414944    13.648997 
 1110000   0.85451979 3.4252082e-05   0.37645138 0.0024533922            0   0.37399799    1.2497352    1.6261866    5.1335997 
 1115000   0.87619835 -2.9103244e-05   0.35472147 0.00013616637            0    0.3545853    1.2814401    1.6361616   -1.3440107 
 1120000   0.78253235 -0.00011777506   0.51799117            0            0   0.51799117    1.1444536    1.6624447   -10.397722 
 1125000   0.87135942 -0.00012029155   0.40847202    0.0104574            0   0.39801462    1.2743632    1.6828352   -10.635019 
 1130000   0.81071875 2.5912757e-05   0.52155983  0.056544102            0   0.46501573    1.1856762     1.707236    4.3607023 
 1135000   0.84717824 -3.1124258e-05   0.47574552  0.015044209            0   0.46070131    1.2389982    1.7147437   -1.4723804 
 1140000   0.83264994 -5.8486508e-05   0.43732133 0.0028167997            0   0.43450453    1.2177505    1.6550719   -4.3339466 
 1145000   0.78251275 -1.7433845e-05   0.47605467 0.0087564944            0   0.46729818    1.1444249    1.6204796  -0.16474614 
 1150000   0.75578696 3.1985938e-05   0.50524134  0.022992395            0   0.48224894    1.1053384    1.6105798    4.8859399 
 1155000   0.75776177 3.7275718e-05   0.52418861   0.03092533            0   0.49326328    1.1082266    1.6324152    5.4494487 
 1160000   0.78322113 -6.5925898e-06   0.52682348  0.041809939            0   0.48501354    1.1454609    1.6722844   0.99720318 
 1165000   0.71149409 6.7915611e-07   0.66882875  0.056460652            0    0.6123681    1.0405601    1.7093888    1.7789344 
 1170000   0.85385743 2.2924659e-05   0.45816173  0.026091439            0   0.43207029    1.2487665    1.7069282    4.0544133 
 1175000   0.94609514 1.2464225e-05    0.3000437 0.0037109721            0   0.29633272    1.3836641    1.6837078    2.9600445 
 1180000   0.93825639 2.756955e-05   0.30249105 0.0088015139            0   0.29368953       1.3722     1.674691    4.4978129 
 1185000   0.80225076 6.0889085e-05   0.50558988 0.0057869573            0   0.49980292    1.1732917    1.6788816    7.9139239 
 1190000   0.76565623 4.2265218e-05   0.49723274 0.00035850982            0   0.49687423    1.1197722     1.617005    5.9449633 
 1195000   0.80665284 -2.5634732e-05   0.44132661            0            0   0.44132661    1.1797298    1.6210564   -1.0039402 
 1200000   0.84782657 -6.2111588e-05   0.39487779            0            0   0.39487779    1.2399464    1.6348242   -4.7254024 
 1205000   0.83075408 -1.8140863e-05   0.37890725 3.8031554e-05            0   0.37886922    1.2149778    1.5938851   -0.2637393 
 1210000    0.7585212 7.3288175e-05   0.47352661  0.010295951            0   0.46323066    1.1093373    1.5828639     9.087573 
 1215000   0.74741497  0.000109179   0.50420729  0.055587823            0   0.44861947    1.0930944    1.5973017    12.777231 
 1220000    0.7748198 -1.0114261e-05   0.46172677  0.026170959            0   0.43555581     1.133174    1.5949007   0.55920038 
 1225000   0.74478601 -7.5058305e-05   0.44364069  0.004326299            0    0.4393144    1.0892495    1.5328902   -6.1530802 
 1230000   0.77738565 -7.6741548e-05   0.38044151 0.0077654717            0   0.37267604    1.1369265     1.517368   -6.3409665 
 1235000   0.72316953 2.3826444e-05   0.46637169  0.007540864            0   0.45883083    1.0576354    1.5240071     3.963835 
 1240000   0.72440419 8.7623174e-05   0.46177005  0.024942912            0   0.43682714    1.0594411    1.5212112    10.493824 
 1245000   0.81006396 4.1287189e-05   0.33542874   0.01458638            0   0.32084236    1.1847185    1.5201473    5.7479555 
 1250000   0.67165255 9.0957167e-06   0.46188289 0.0059021498            0   0.45598074   0.98229186    1.4441747    2.3755761 
 1255000   0.72748366  1.40416e-05   0.38689929 0.0041580664            0   0.38274123    1.0639449    1.4508442     2.888704 
 1260000   0.77748083 6.0824976e-05   0.33757555  0.011048108            0   0.32652744    1.1370657    1.4746413    7.7031188 
 1265000   0.65828931 4.1122312e-05   0.50247487  0.035675216            0   0.46679965   0.96274812     1.465223    5.6761478 
 1270000   0.64370389 2.0074462e-05   0.52345095  0.022623347            0    0.5008276   0.94141693    1.4648679    3.5204928 
 1275000   0.69084799 -2.7375923e-05   0.43798313  0.024287675            0   0.41369546    1.0103652    1.4483483   -1.3549462 
 1280000   0.70183213 -6.6467526e-05   0.41430467 0.0064191176            0   0.40788555    1.0264295    1.4407342   -5.3655405 
 1285000   0.66830364 -2.2962927e-05   0.46471102  0.013087299            0   0.45162372   0.97739407    1.4421051  -0.90929861 
 1290000   0.66845799 7.3672468e-05   0.44162661   0.02818797            0   0.41343864    0.9776198    1.4192464    8.9633071 
 1295000    0.6980553 0.00013916109   0.41336361  0.028469076            0   0.38489454    1.0209059    1.4342695    15.684365 
 1300000   0.72523215 9.6084717e-05   0.39254787  0.010171917            0   0.38237596     1.060652    1.4531999    11.292275 
 1305000   0.60482622 1.8896657e-05   0.61658954  0.011834025            0   0.60475552   0.88455834    1.5011479    3.4361656 
 1310000   0.61545386 1.7657223e-05   0.57235722  0.010034152            0   0.56232307   0.90010127    1.4724585    3.2805581 
 1315000   0.67893126 4.3133954e-05   0.48724684  0.011353698            0   0.47589314   0.99293697    1.4801838    5.8971007 
 1320000   0.79832358 1.3791559e-05   0.34202701  0.011461602            0   0.33056541    1.1675482    1.5095752    2.9218309 
 1325000   0.83547438 -1.2880345e-05   0.32736335 0.0061215989            0   0.32124175    1.2218813    1.5492446   0.23029733 
 1330000   0.69967829 2.9145994e-05   0.54047242  0.012067612            0    0.5284048    1.0232795    1.5637519    4.5483017 
 1335000   0.72019164 7.8962931e-05    0.5018428  0.019687665            0   0.48215514    1.0532803    1.5551231    9.6409273 
 1340000   0.70110535 0.00014316755   0.54249084  0.012935909            0   0.52955493    1.0253666    1.5678574    16.228215 
 1345000   0.76179505 9.325502e-05   0.46988615 0.0036201076            0   0.46626604    1.1141253    1.5840114    11.133325 
 1350000   0.72622652 -7.1871934e-06   0.49866653 0.00015803742            0    0.4985085    1.0621063    1.5607728   0.82480422 
 1355000   0.72253164 -1.5340357e-05   0.52516905 0.0010010829            0   0.52416797    1.0567025    1.5818716  0.011018992 
 1360000   0.69386393 1.5750201e-06   0.56701608 0.0022205483            0   0.56479553     1.014776    1.5817921    1.7430741 
 1365000   0.78462864 1.9159321e-05   0.42458045 0.0089881858            0   0.41559226    1.1475194    1.5720998    3.5340143 
 1370000   0.83060689 -2.4021634e-07   0.37554947  0.017657681            0   0.35789179    1.2147626     1.590312    1.5657139 
 1375000   0.76171696 1.5936251e-05   0.52305612  0.037470599            0   0.48558552    1.1140111    1.6370672    3.2689393 
 1380000   0.79228626 4.3742474e-05   0.45853549  0.060907861            0   0.39762763    1.1587187    1.6172541    6.0964835 
 1385000   0.79468004 8.1543127e-05   0.48592329  0.030162701            0   0.45576059    1.1622196    1.6481428    9.9981591 
 1390000   0.80289674 4.1944929e-05   0.47533737  0.035398619            0   0.43993875    1.1742365    1.6495738    5.9447346 
 1395000   0.71994768 -2.5473545e-05   0.55773213  0.062964412            0   0.49476772    1.0529235    1.6106556  -0.99783543 
 1400000   0.76443835 -6.131848e-05   0.48722228  0.022838726            0   0.46438355    1.1179911    1.6052134    -4.673799 
 1405000   0.71525925 -7.010391e-05   0.54226587  0.035846282            0   0.50641958    1.0460667    1.5883325   -5.5903078 
 1410000   0.65257727 -6.940556e-05   0.66964999  0.055138685            0   0.61451131   0.95439426    1.6240443   -5.4830851 
 1415000   0.75188075 -9.097365e-05   0.51248926  0.053529878            0   0.45895938    1.0996256    1.6121149   -7.7035869 
 1420000   0.86406163 -1.0191866e-05   0.34981198 0.0021460928            0   0.34766588    1.2636901    1.6135021   0.56985498 
 1425000   0.81043925 6.3930355e-05    0.4169165  0.008873818            0   0.40804268    1.1852674    1.6021839    8.1486523 
 1430000   0.80687235 -5.1073545e-06   0.48004496   0.03404928            0   0.44599568    1.1800508    1.6600958    1.1371027 
 1435000   0.75743094 -4.9342068e-05   0.56079642  0.065544048            0   0.49525238    1.1077427    1.6685392   -3.3840886 
 1440000   0.77609459 7.620839e-07   0.56748099  0.028554033            0   0.53892696    1.1350383    1.7025193    1.7805567 
 1445000   0.79199496 2.727279e-05   0.51435929 0.0080759009            0   0.50628339    1.1582926    1.6726519    4.4653856 
 1450000   0.81914295 -6.4264635e-06   0.48005481  0.005240286            0   0.47481453    1.1979966    1.6780514    1.0199815 
 1455000   0.73934739 -9.5705274e-06   0.55683505  0.015614585            0   0.54122046    1.0812956    1.6381306    0.6581086 
 1460000   0.91623019 5.2483755e-05   0.34090077  0.034615064            0   0.30628571    1.3399867    1.6808874     7.055224 
 1465000   0.81064606 4.8309312e-05   0.52311642  0.010113489            0   0.51300293    1.1855699    1.7086863    6.6555598 
 1470000   0.86820872 -8.2324839e-06    0.4811828  0.014182097            0   0.46700071    1.2697552    1.7509381    0.9079317 
 1475000   0.92003215 -6.9697714e-05   0.45028877  0.013480633            0   0.43680813     1.345547    1.7958358   -5.3412101 
 1480000   0.75069672 -5.2701498e-05   0.70949204  0.038843901            0   0.67064814     1.097894     1.807386   -3.5892474 
 1485000   0.92604469 1.4610244e-05   0.43694569  0.032182151            0   0.40476354    1.3543404     1.791286    3.2873751 
 1490000   0.81632254 -5.4745659e-05   0.63903684  0.034349512            0   0.60468733    1.1938717    1.8329086   -3.7730469 
 1495000   0.78384584 -5.9271773e-05    0.6888735   0.23493003            0   0.45394346    1.1463745     1.835248   -4.2341815 
 1500000   0.92028274 -7.9001615e-05   0.51988548  0.075199325            0   0.44468615    1.3459135     1.865799   -6.2239664 
 1505000   0.90800039 -3.4425643e-05   0.55055093  0.041812037            0    0.5087389    1.3279506    1.8785015   -1.6466844 
 1510000   0.88497771 3.422856e-05    0.5753438  0.027337152            0   0.54800665    1.2942799    1.8696237    5.3746282 
 1515000    0.8777582 1.751286e-05   0.63973726  0.052474074            0   0.58726319    1.2837214    1.9234586    3.7167755 
 1520000   0.90558091 -5.0387658e-06   0.62463801  0.040913809            0    0.5837242    1.3244121    1.9490501    1.4330805 
 1525000    0.9733421 7.1011548e-06   0.53294395  0.050636597            0   0.48230736    1.4235128    1.9564568     2.683615 
 1530000   0.99813547 -5.9261747e-05   0.48955717 0.0061063291            0   0.48345084    1.4597731    1.9493303   -4.1190726 
 1535000    1.0066199 -6.6545539e-05   0.46917065 0.0015515912            0   0.46761906    1.4721816    1.9413523   -4.8729109 
 1540000    1.0170976 -1.8933325e-05    0.4874118 0.0095661906            0   0.47784561    1.4875052     1.974917  0.036144467 
 1545000    1.0890259 -5.5044761e-05   0.44233172  0.025406534            0   0.41692518    1.5927003     2.035032   -3.6015515 
 1550000    1.0655811 -3.7525234e-06   0.48276843  0.032926649            0   0.44984178    1.5584124    2.0411809    1.6569225 
 1555000   0.99645329 2.6077121e-05   0.58424022  0.026325222            0   0.55791499    1.4573129    2.0415531    4.7118503 
 1560000    1.0136491 -4.3648975e-05   0.52097034  0.015025532            0    0.5059448    1.4824619    2.0034322   -2.4662229 
 1565000    1.1018684 -3.6593798e-06   0.42984608  0.019363103            0   0.41048298    1.6114825    2.0413286    1.6666081 
 1570000   0.97109912 -9.660768e-06   0.60140394   0.07948492            0   0.52191902    1.4202325    2.0216364    1.0323738 
 1575000   0.97878203 2.9371911e-05   0.58204683  0.041759725            0    0.5402871    1.4314687    2.0135155    5.0211992 
 1580000    1.0676159 4.5448476e-05   0.47959765 0.0022763231            0   0.47732133    1.5613883    2.0409859    6.6949099 
 1585000   0.96122067 -8.3798471e-05     0.653185 0.00066782405            0   0.65251718    1.4057852    2.0589702   -6.5219932 
 1590000     1.093805 2.7095699e-05   0.44568804 0.0020384497            0   0.44364959    1.5996898    2.0453778    4.8199774 
 1595000    1.0552292 6.7418939e-05   0.53017407 0.00044096634            0   0.52973311    1.5432728    2.0734468    8.9771461 
 1600000    1.1027267 -0.00011887525    0.5202634 0.00026427341            0   0.51999912    1.6127378    2.1330012   -10.039824 
 1605000    1.1138381 -3.1304358e-05   0.49797656 0.00046986554            0    0.4975067    1.6289882    2.1269648   -1.0786015 
 1610000    1.1441715 1.7218392e-06   0.45961085 0.00046385052            0     0.459147    1.6733508    2.1329617     2.309278 
 1615000    1.0735762 -0.00012834284   0.48059501 0.00053240835            0    0.4800626    1.5701051    2.0507001   -11.091606 
 1620000    1.0685962 -5.0063718e-05   0.49734087 0.0084132624            0   0.48892761    1.5628219    2.0601628   -3.0663619 
 1625000    1.0672114 -1.1457973e-05   0.45890802  0.062756921            0    0.3961511    1.5607967    2.0197047    0.8464083 
 1630000   0.98899157 2.0562395e-05   0.57291415  0.082172946            0    0.4907412    1.4464002    2.0193143    4.1249036 
 1635000   0.98208213 -1.9538663e-05   0.52052378  0.019266488            0   0.50125729    1.4362951    1.9568189 -0.043940224 
 1640000    1.0879115 -8.0953713e-05   0.40641286   0.02277283            0   0.38364003    1.5910705    1.9974834   -6.2921768 
 1645000    1.0712588 -5.6156684e-05   0.43045199 0.0084490199            0   0.42200297     1.566716    1.9971679   -3.7532765 
 1650000    1.0496251 -9.7672207e-05   0.42295882            0            0   0.42295882    1.5350767    1.9580355   -8.0435985 
 1655000    1.0064829 -4.1904889e-05    0.4946759            0            0    0.4946759    1.4719812    1.9666571   -2.3244035 
 1660000     1.002912 3.7704225e-05   0.41341672 6.2026698e-05            0    0.4133547    1.4667588    1.8801756    5.7410882 
 1665000     1.019851 3.9096936e-05   0.35562968 0.00012988376            0   0.35549979    1.4915321    1.8471618     5.850688 
 1670000   0.94900418 5.9910811e-06   0.49477009 0.0024852281            0   0.49228486    1.3879186    1.8826887    2.4961754 
 1675000   0.92554984 -6.8798484e-05   0.52117888  0.042428269            0   0.47875061    1.3536166    1.8747955   -5.1701692 
 1680000   0.85829352 -0.00014048585   0.61390531   0.07875824            0   0.53514707    1.2552543    1.8691596   -12.516592 
 1685000   0.92324478 -4.7642733e-05   0.49306983   0.02300994            0   0.47005989    1.3502455    1.8433153   -3.0353005 
 1690000   0.87968204 4.0180719e-05   0.52931752 0.0067213588            0   0.52259616     1.286535    1.8158525    5.9303581 
 1695000   0.88918919 -1.0096083e-05   0.53513842 0.0054846374            0   0.52965378    1.3004392    1.8355776   0.80173875 
 1700000   0.94530304 8.4175908e-06   0.45377549  0.010630154            0   0.44314534    1.3825057    1.8362812    2.6982425 
 1705000   0.80458887 4.4248066e-05    0.6745097  0.031991559            0   0.64251814    1.1767112    1.8512209    6.3822229 
 1710000   0.93563112 -9.6318902e-05   0.46753934  0.020110206            0   0.44742914    1.3683605    1.8358999   -8.0271557 
 1715000    0.8967254 -0.00013274041   0.49236734 0.0094347283            0   0.48293261    1.3114609    1.8038282    -11.78879 
 1720000   0.95061386 -4.5514104e-06   0.41275221  0.011936369            0   0.40081585    1.3902728     1.803025    1.3369606 
 1725000   0.83667589 8.8325821e-05   0.59198552  0.029451729            0   0.56253379    1.2236385     1.815624    10.860188 
 1730000   0.83985418 7.0282713e-05   0.57783173  0.053820943            0   0.52401078    1.2282867    1.8061185    9.0030683 
 1735000   0.98069414 -1.4551646e-05   0.38087079  0.028835696            0   0.35203509    1.4342652     1.815136   0.32504745 
 1740000   0.94162961 -6.5985838e-05   0.40620287 0.0066707949            0   0.39953207    1.3771333    1.7833362   -4.9736137 
 1745000   0.75927182 -3.1646806e-05   0.67740587  0.022766618            0   0.65463925     1.110435    1.7878409    -1.452792 
 1750000   0.81644051 3.2209251e-05   0.60243452  0.051093275            0   0.55134125    1.1940442    1.7964788    5.0947061 
 1755000   0.92827223 2.6145823e-05   0.46924765  0.010222746            0   0.45902491    1.3575981    1.8268458    4.5041781 
 1760000    1.0026458 4.1262206e-05    0.3877187   0.01199584            0   0.37572286    1.4663695    1.8540882    6.0793381 
 1765000   0.87524809 6.9185123e-05   0.58696365   0.02249115            0    0.5644725    1.2800503     1.867014    8.9515706 
 1770000    1.0146286 5.6483691e-05    0.4274411  0.023626254            0   0.40381485    1.4838944    1.9113355    7.6952655 
 1775000   0.89386785 -1.1300064e-05   0.64766433  0.021648127            0    0.6260162    1.3072817    1.9549461   0.79781953 
 1780000    1.0460475 -4.7046503e-05   0.44559324 0.0041723889            0   0.44142085    1.5298445    1.9754377   -2.8421241 
 1785000    1.0178817 1.9813389e-05   0.47343628 0.00014394116            0   0.47329233     1.488652    1.9620883    3.9909793 
 1790000   0.88064582 2.1390479e-05   0.65255088 0.00067452589            0   0.65187635    1.2879445    1.9404954    4.1308804 
 1795000   0.97457285 4.2810982e-05   0.53204175 0.0044712095            0   0.52757054    1.4253128    1.9573545    6.3411991 
 1800000    1.0258967 -1.8441307e-05   0.42508194 0.0028864418            0    0.4221955    1.5003739    1.9254558   0.03706604 
 1805000     1.011908 1.5706488e-05   0.44715512 0.0060471764            0   0.44110794    1.4799155    1.9270706     3.535415 
 1810000    1.0191246 -5.542516e-05   0.45018006  0.016445503            0   0.43373456    1.4904697    1.9406498   -3.7348866 
 1815000   0.85767057 -1.448546e-05   0.69153046  0.013841602            0   0.67768886    1.2543432    1.9458737   0.46256258 
 1820000   0.89008081 8.8157917e-05   0.59404491  0.010899248            0   0.58314567    1.3017432    1.8957881    10.923159 
 1825000   0.82094377 -1.2512227e-05   0.68633185 0.0057525804            0   0.68057927    1.2006303    1.8869621   0.60571011 
 1830000   0.79477334 -5.1312832e-05   0.71913447  0.002920566            0   0.71621391     1.162356    1.8814905   -3.3729435 
 1835000   0.96441506 1.014188e-05   0.45263539 0.0086248056            0   0.44401059     1.410457    1.8630924    2.9016209 
 1840000   0.96268185 -8.704634e-06   0.43080712  0.014782824            0   0.41602429    1.4079222    1.8387293   0.94737479 
 1845000   0.84321188 -3.4253173e-05   0.60050812  0.011019041            0   0.58948908    1.2331974    1.8337055   -1.6738194 
 1850000   0.92735346 7.135983e-05    0.4803431 0.0047373438            0   0.47560576    1.3562544    1.8365975    9.1438441 
 1855000   0.80406332 0.0001032059   0.63542111  0.019254386            0   0.61616673    1.1759426    1.8113637    12.379648 
 1860000   0.94945902 -6.7489044e-06   0.42171464   0.02168063            0   0.40003401    1.3885838    1.8102985    1.1192106 
 1865000   0.81493086 -2.6953231e-05   0.59598053 0.0092673095            0   0.58671322    1.1918364    1.7878169  -0.97219388 
 1870000   0.83023508 4.1649089e-05   0.57865933  0.011051365            0   0.56760796    1.2142188    1.7928781    6.0577449 
 1875000   0.82839213 4.6158218e-05   0.57543449  0.012460754            0   0.56297374    1.2115235     1.786958    6.5135595 
 1880000   0.92720156 -2.5351572e-05   0.45867172 0.0056690401            0   0.45300268    1.3560323     1.814704  -0.78129695 
 1885000   0.79552671 -3.01492e-05   0.64908665 0.0033544323            0   0.64573221    1.1634578    1.8125445   -1.2747337 
 1890000   0.96296712 -2.7977653e-07   0.40586996  0.002144631            0   0.40372533    1.4083394    1.8142094    1.7855603 
 1895000   0.93756943 4.4882502e-05    0.4581883 0.00098593851            0   0.45720236    1.3711953    1.8293836    6.4253518 
 1900000   0.97453612 -4.0607336e-05   0.40415195 0.0010668107            0   0.40308514    1.4252591     1.829411   -2.3287802 
 1905000      0.86114 -0.00013273081   0.54713626  0.021494935            0   0.52564132    1.2594172    1.8065535   -11.785081 
 1910000   0.81561204 -3.7746978e-05   0.60585929  0.045698531            0   0.56016076    1.1928326    1.7986919   -2.0665987 
 1915000   0.87906863 2.3378533e-05   0.51158241   0.02369287            0   0.48788954    1.2856379    1.7972203    4.1911821 
 1920000   0.84502106 3.9630325e-05   0.53627925  0.055615022            0   0.48066423    1.2358433    1.7721226    5.8302678 
 1925000    0.8692584 6.4053238e-05   0.49794015 0.0099008016            0   0.48803935    1.2712904    1.7692306    8.3282821 
 1930000   0.83536289 1.7362528e-05   0.58106599            0            0   0.58106599    1.2217182    1.8027842    3.5807071 
 1935000   0.96084122 4.3131715e-06   0.40473011 3.2427444e-05            0   0.40469768    1.4052303    1.8099604    2.2516292 
 1940000   0.93659398 3.6604315e-05    0.4324969 0.0011183333            0   0.43137856    1.3697687    1.8022656    5.5505474 
 1945000    0.9558056 1.6681727e-05   0.40025038 0.0033524813            0    0.3968979    1.3978657    1.7981161    3.5063249 
 1950000   0.82684315 -4.2913684e-05   0.58253942  0.011586324            0    0.5709531    1.2092581    1.7917975   -2.6025637 
 1955000   0.94587815 -1.3465192e-05   0.38237211  0.021560669            0   0.36081144    1.3833468    1.7657189   0.38688324 
 1960000    0.9281448 4.8562138e-05   0.37296732  0.026733943            0   0.34623337    1.3574118    1.7303791     6.703142 
 1965000   0.86605076 6.4449643e-06   0.41848015  0.030491152            0   0.38798899    1.2665992    1.6850794    2.3450437 
 1970000   0.90659104 4.7782943e-05   0.38944174  0.022189506            0   0.36725223    1.3258894    1.7153311    6.6083045 
 1975000   0.88279446 -1.0844825e-05   0.39530365 0.0012268022            0   0.39407685    1.2910869    1.6863905   0.57588047 
 1980000   0.93628491 -7.3406493e-06    0.3122856            0            0    0.3122856    1.3693167    1.6816023   0.92991979 
 1985000   0.82417726 7.2489161e-05   0.41143154 0.00061669502            0   0.41081484    1.2053592    1.6167908    9.0396808 
 1990000   0.82312689 4.0781255e-05    0.4068936 0.0020806616            0   0.40481294    1.2038231    1.6107167    5.7867172 
 1995000    0.8485816 2.2096748e-05   0.36790835 0.0038567225            0   0.36405162    1.2410506    1.6089589     3.871666 
 2000000   0.80886296 6.097998e-05   0.44349717 0.0014233819            0   0.44207379    1.1829621    1.6264593    7.8708092 
 2005000   0.85943712 5.2588973e-05   0.37409785 0.00024429184            0   0.37385356    1.2569268    1.6310246    7.0161355 
 2010000   0.74686371 2.7076662e-05   0.54239154  0.010164103            0   0.53222743    1.0922882    1.6346797    4.4073299 
 2015000     0.826632 4.0995257e-05   0.41042022  0.017744085            0   0.39267613    1.2089493    1.6193695    5.8172839 
 2020000   0.74146946 -1.0625555e-05   0.52468772  0.035672912            0   0.48901481    1.0843991    1.6090868   0.52102998 
 2025000   0.80529147 -9.729897e-06   0.44699036  0.033365345            0   0.41362502    1.1777388    1.6247291   0.62838768 
 2030000   0.82624476 -4.3118016e-06   0.39115644 0.00029078647            0   0.39086566     1.208383    1.5995394    1.1580109 
 2035000   0.82727266 -2.4704726e-05   0.36869274            0            0   0.36869274    1.2098863     1.578579  -0.95118495 
 2040000    0.8711821 -4.8545905e-05   0.33436437            0            0   0.33436437    1.2741038    1.6084682   -3.3626325 
 2045000   0.82906128 1.0757072e-05   0.44866241 0.0034550388            0   0.44520737    1.2125021    1.6611645    2.7626887 
 2050000   0.73989239 3.5873503e-05   0.58414246   0.01698664            0   0.56715582    1.0820926    1.6662351    5.3396818 
 2055000   0.87382011 -1.6915985e-05   0.39807136  0.032550293            0   0.36552107    1.2779619    1.6760333 -0.056163594 
 2060000   0.74130231 -0.0001153173   0.56806124  0.021875116            0   0.54618612    1.0841546    1.6522159   -10.156276 
 2065000   0.87809848 -2.8761269e-05   0.38580012   0.03276061            0   0.35303951     1.284219    1.6700191   -1.2751348 
 2070000   0.85355952 3.1721775e-05   0.40639075 0.0099215173            0   0.39646923    1.2483308    1.6547215    4.9030313 
 2075000   0.76007371 -4.016579e-05   0.51637865 5.9725804e-07            0   0.51637805    1.1116078    1.6279864   -2.4849905 
 2080000   0.77470295 -5.2991905e-05   0.49423964            0            0   0.49423964    1.1330031    1.6272427   -3.7991284 
 2085000   0.84271649 -2.0495777e-05   0.40283551 3.1602414e-05            0   0.40280391    1.2324729    1.6353084  -0.46345921 
 2090000   0.90846369 -2.8780179e-05   0.32062611 0.00078137163            0   0.31984474    1.3286281    1.6492542   -1.2978361 
 2095000   0.73253341 -6.419626e-05   0.58765153  0.004177529            0     0.583474    1.0713301    1.6589816   -4.9147154 
 2100000   0.92639662 -4.0029665e-05   0.32991349  0.020614878            0   0.30929861    1.3548551    1.6847686   -2.4142692 
 2105000   0.88364085 -1.4712559e-05   0.44791076  0.051290758            0   0.39662001    1.2923247    1.7402355    0.2336695 
 2110000   0.80929202 1.2820992e-05   0.51370412  0.026316644            0   0.48738748    1.1835896    1.6972937    3.0101633 
 2115000   0.92805119 7.5199249e-05   0.36010416  0.013346772            0   0.34675739    1.3572749     1.717379    9.4177821 
 2120000   0.87107236 1.416547e-05   0.46428334  0.016590315            0   0.44769302    1.2739433    1.7382267    3.1887708 
 2125000   0.87974497 -1.6495448e-05    0.4082978  0.063684603            0   0.34461319     1.286627    1.6949248 0.0057909112 
 2130000   0.86908876 -0.00010711173   0.44792991  0.022604853            0   0.42532506    1.2710423    1.7189722   -9.2492691 
 2135000   0.87487887 5.874995e-06    0.4644385  0.002625001            0    0.4618135    1.2795103    1.7439488    2.3455483 
 2140000   0.86193698 -2.8304913e-05   0.44185475 0.00048481142            0   0.44136994    1.2605828    1.7024376   -1.1959855 
 2145000   0.88861837 2.5019149e-05   0.39035295 0.0022843184            0   0.38806863    1.2996044    1.6899573    4.2519182 
 2150000   0.78493121 2.1221048e-05   0.53800529  0.013243629            0   0.52476166    1.1479619    1.6859672    3.8590025 
 2155000   0.81574016 -0.0001139162   0.49782023  0.019031628            0   0.47878861      1.19302    1.6908402    -9.974179 
 2160000   0.74894122 -0.00010029871   0.57259561 0.0092653525            0   0.56333026    1.0953265    1.6679221   -8.6026658 
 2165000   0.80081136 -1.5283884e-05   0.48904024  0.013485486            0   0.47555476    1.1711866    1.6602269  0.095157187 
 2170000   0.71980215 1.6743187e-05   0.57808563  0.012548051            0   0.56553758    1.0527106    1.6307963    3.3452986 
 2175000   0.80989367 6.5871356e-06   0.45298527 0.0056039208            0   0.44738135    1.1844695    1.6374548    2.3119774 
 2180000   0.73326105 1.8583658e-05   0.57548644 0.0011554102            0   0.57433103    1.0723943    1.6478807    3.5508473 
 2185000   0.80636627 3.4155705e-05   0.44611453            0            0   0.44611453    1.1793107    1.6254252    5.1229694 
 2190000   0.82324316 -3.8397984e-05   0.41493067            0            0   0.41493067    1.2039931    1.6189238   -2.3130298 
 2195000   0.77766318 -0.00014779773   0.47811508 5.042696e-05            0   0.47806466    1.1373324    1.6154475    -13.51904 
 2200000    0.8536369 -6.2824655e-05   0.36098494  0.017235335            0    0.3437496     1.248444    1.6094289   -4.8238158 
 2205000   0.68972875 4.3543696e-05   0.59785199  0.063159159            0   0.53469283    1.0087283    1.6065803    6.0654547 
 2210000   0.81032319 7.7040848e-06   0.43227633  0.045771302            0   0.38650503    1.1850977     1.617374    2.4062723 
 2215000    0.7724897 -4.7381483e-05   0.55665314   0.07998749            0   0.47666565    1.1297662    1.6864193   -3.1654445 
 2220000    0.9666497 -5.5328585e-07   0.29592004  0.040085465            0   0.25583457    1.4137252    1.7096452    1.6529888 
 2225000   0.84092069 2.9883605e-05   0.47236959  0.027569258            0   0.44480033    1.2298465    1.7022161    4.7622972 
 2230000   0.77982913 9.9840229e-06   0.52226915  0.027497424            0   0.49477172    1.1405001    1.6627693    2.6851332 
 2235000   0.80699136 2.2604485e-05   0.45694331 0.0018140993            0   0.45512922    1.1802249    1.6371682    3.9518675 
 2240000   0.77686792 1.6844637e-05   0.49466396 0.00020274926            0   0.49446121    1.1361693    1.6308333    3.3557241 
 2245000   0.85848589 3.4286848e-05   0.34329664 0.0017507914            0   0.34154585    1.2555356    1.5988323    5.1098054 
 2250000   0.78319971 5.9850776e-05   0.47827781 0.0091441006            0   0.46913371    1.1454296    1.6237074    7.7524268 
 2255000   0.80634986 4.6862836e-06   0.45129696  0.044157701            0   0.40713926    1.1792867    1.6305836    2.1104591 
 2260000   0.82346744 -4.9756505e-05   0.40551207  0.034131951            0   0.37138011    1.2043211    1.6098332   -3.4852329 
 2265000   0.80621302 2.8336347e-06   0.44059086  0.013064071            0   0.42752679    1.1790865    1.6196774    1.9098416 
 2270000   0.82518411 3.4515791e-05   0.42311692 0.0054904789            0   0.41762644    1.2068318    1.6299487    5.1643657 
 2275000   0.89088895 -1.3956441e-05   0.34489722  0.013175352            0   0.33172186    1.3029251    1.6478223   0.21868277 
 2280000    0.8210945 -1.2880159e-05   0.45083061  0.011286063            0   0.43954455    1.2008507    1.6516813   0.33275306 
 2285000    0.8792413 6.1522558e-06   0.39744128 0.0024984068            0   0.39494287    1.2858904    1.6833317    2.3133227 
 2290000   0.81113608 1.9139545e-08    0.4658505 0.0010972751            0   0.46475322    1.1862865     1.652137    1.6540969 
 2295000   0.81504504 1.4938497e-06   0.49452989 0.0039164412            0   0.49061344    1.1920034    1.6865333    1.8395035 
 2300000   0.84445986 3.0574977e-05    0.5008183 0.0063641138            0   0.49445418    1.2350225    1.7358408    4.8667185 
 2305000   0.82374679 5.4535977e-05   0.51088201 0.0089523652            0   0.50192964    1.2047297    1.7156117    7.3000957 
 2310000   0.75923209 1.9284841e-05    0.6097149  0.016008104            0    0.5937068    1.1103769    1.7200918    3.6948596 
 2315000   0.82692452 -4.9098172e-06   0.52312104  0.030096136            0   0.49302491    1.2093771    1.7324982    1.2297329 
 2320000   0.90694072 3.5350271e-05   0.39633519  0.031211421            0   0.36512377    1.3264008     1.722736    5.3426037 
 2325000   0.86642758 1.0990137e-05    0.4495496  0.026629232            0   0.42292037    1.2671503    1.7166999    2.8420899 
 2330000   0.81312463 -0.00012202777   0.57371872  0.028237925            0    0.5454808    1.1891948    1.7629135    -10.73273 
 2335000   0.80826424 -6.5506458e-05   0.59079051  0.044929785            0   0.54586073    1.1820865     1.772877   -4.9349843 
 2340000   0.80464192 -2.3365377e-05   0.58054888  0.037215853            0   0.54333302    1.1767888    1.7573377  -0.63527697 
 2345000   0.89585089 -1.7835295e-05   0.46367236 0.0017966845            0   0.46187568    1.3101819    1.7738543 -0.052479924 
 2350000   0.91691292 5.8748109e-05   0.40785123 0.0013915207            0   0.40645971    1.3409851    1.7488364    7.7646427 
 2355000   0.91010151 1.0474491e-05   0.37412403 0.0035923713            0   0.37053166    1.3310235    1.7051475    2.7777354 
 2360000   0.80544199 7.3596451e-06   0.52056817 0.0044790268            0   0.51608915    1.1779589    1.6985271    2.4521548 
 2365000   0.76566715 9.5689909e-05   0.55532755 0.0019924153            0   0.55333514    1.1197882    1.6751158    11.473762 
 2370000   0.75249738  6.61698e-05   0.54835234 0.00034267035            0   0.54800967    1.1005274    1.6488798    8.4246672 
 2375000   0.67333989 -1.1521156e-05   0.67390032  0.008924335            0   0.66497599    0.9847596    1.6586599   0.47889351 
 2380000   0.71428849 -1.3784587e-05   0.61044514  0.023020609            0   0.58742453    1.0446469    1.6550921   0.24355031 
 2385000   0.66774524 -6.5843019e-05   0.69242146  0.012610907            0   0.67981055   0.97657741    1.6689989   -5.0733263 
 2390000   0.76604074 -3.7825844e-05   0.54530108 0.0044549427            0   0.54084614    1.1203346    1.6656357   -2.2077307 
 2395000   0.80251939 -2.1302909e-05   0.49249239  0.035382089            0    0.4571103    1.1736846     1.666177  -0.51524086 
 2400000   0.80484019 -3.9024834e-05    0.4592159  0.015608411            0   0.44360749    1.1770788    1.6362947   -2.3598484 
 2405000   0.65262239 -1.8750638e-05    0.6700439 0.0015941239            0   0.66844977   0.95446025    1.6245041  -0.29556118 
 2410000   0.84526721 -2.2205986e-05   0.35410204 1.2111101e-05            0   0.35408992    1.2362033    1.5903053   -0.6835876 
 2415000   0.76949499 3.2136114e-05   0.44971922 0.0011301613            0   0.44858906    1.1253864    1.5751056    4.8658438 
 2420000   0.74407487 1.7242553e-05   0.53013127 0.0043816998            0   0.52574957    1.0882095    1.6183408    3.3839782 
 2425000   0.82456785 -9.0264056e-06   0.44440944 0.0060085683            0   0.43840087    1.2059305    1.6503399   0.72603599 
 2430000   0.80099553 8.970601e-06   0.49485549 0.00089649092            0     0.493959     1.171456    1.6663114     2.584901 
 2435000    0.7744234 2.7557862e-05   0.51215668 0.00052182046            0   0.51163486    1.1325942    1.6447509     4.466676 
 2440000   0.70835134 6.2986966e-05   0.60828056  0.019088896            0   0.58919166    1.0359638    1.6442444    8.0941097 
 2445000   0.87569532 2.5352404e-06   0.34818648  0.029825126            0   0.31836136    1.2807044    1.6288909    1.8884995 
 2450000   0.75499986 -0.0001156475   0.54266074 0.0016435622            0   0.54101717    1.1041873     1.646848   -10.195456 
 2455000   0.81825549 -1.9705991e-05   0.43975907            0            0   0.43975907    1.1966987    1.6364577   -0.3814357 
 2460000   0.79729753 -3.1211977e-06   0.46979411  0.007614145            0   0.46217997    1.1660476    1.6358418    1.3162311 
 2465000   0.71904906 1.0397002e-05   0.58900757  0.037532944            0   0.55147463    1.0516092    1.6406168    2.7052698 
 2470000   0.80087483 1.7282385e-05   0.48732683  0.014256136            0   0.47307069    1.1712794    1.6586063    3.4283225 
 2475000   0.79662785 -7.068017e-05   0.50036542  0.012271883            0   0.48809354    1.1650682    1.6654337   -5.5722158 
 2480000   0.86444054 -1.2455462e-05   0.39922412 0.0089229457            0   0.39030118    1.2642443    1.6634684   0.38802911 
 2485000   0.79121266 -2.8042572e-05   0.52342556 0.0061807791            0   0.51724478    1.1571485    1.6805741   -1.1909853 
 2490000   0.88517391 -6.9218202e-05   0.38872592  0.012818478            0   0.37590744    1.2945668    1.6832928   -5.4046512 
 2495000   0.77416792 3.0148442e-05   0.49465611 0.0080123582            0   0.48664375    1.1322206    1.6268767    4.7140771 
 2500000   0.76274239 5.5329618e-05   0.48856442  0.003092115            0    0.4854723    1.1155107    1.6040752    7.2698281 
 2505000   0.84518193 3.146013e-05   0.35934121 0.0056770835            0   0.35366412    1.2360786    1.5954198     4.816937 
 2510000     0.849687 1.7465039e-05   0.34090591 0.0043708254            0   0.33653508    1.2426672    1.5835731    3.3719932 
 2515000   0.78155329 -6.0361451e-05   0.42644116 0.00067775521            0   0.42576341    1.1430217    1.5694628   -4.6115498 
 2520000   0.78474866 -0.0001329552   0.43048799  0.015380383            0   0.41510761    1.1476949    1.5781829   -12.036429 
 2525000   0.73529206 -9.2595199e-05   0.50150664  0.077391022            0   0.42411562    1.0753646    1.5768713   -7.9048771 
 2530000   0.78691073 1.8626884e-05   0.38573895  0.024489524            0   0.36124942    1.1508569    1.5365959    3.4439888 
 2535000     0.722289 2.6062236e-05   0.47244212 0.00027754537            0   0.47216458    1.0563477    1.5287898    4.1975627 
 2540000   0.70594485 4.421599e-06   0.49035747            0            0   0.49035747    1.0324443    1.5228018    1.9755736 
 2545000   0.76761055 -3.6855734e-05   0.40737163 6.8476932e-05            0   0.40730315    1.1226304    1.5300021   -2.2440251 
 2550000   0.72709079 -0.00013210956    0.4701776 0.0069924467            0   0.46318516    1.0633703    1.5335479   -11.994471 
 2555000   0.69199494 -7.5270458e-05   0.52268245  0.027375746            0   0.49530671    1.0120426    1.5347251   -6.1729699 
 2560000    0.7305739 2.6600302e-05   0.47368964   0.01067502            0   0.46301462    1.0684643     1.542154    4.2660249 
 2565000   0.78066019 -3.4637498e-05   0.43097317 0.0002514141            0   0.43072175    1.1417155    1.5726887   -1.9741911 
 2570000   0.78941642 -5.2853049e-05   0.43144638 0.0050090775            0    0.4264373    1.1545215    1.5859679   -3.8261843 
 2575000   0.79483853 4.4612164e-05   0.38321284  0.020880229            0   0.36233261    1.1624513    1.5456642    6.1139498 
 2580000   0.70989971 8.6961096e-05   0.50078707  0.070765981            0   0.43002109    1.0382283    1.5390154    10.443832 
 2585000   0.76894087 -9.7002233e-06   0.42643724  0.012432646            0    0.4140046     1.124576    1.5510133    0.5577104 
 2590000    0.6549289 -2.0986388e-05   0.60585666            0            0   0.60585666   0.95783351    1.5636902  -0.58531596 
 2595000   0.83031869 2.2068755e-05   0.37244409            0            0   0.37244409    1.2143411    1.5867852    3.8466257 
 2600000   0.84551901 1.3564051e-05   0.37014696            0            0   0.37014696    1.2365715    1.6067185    2.9956773 
 2605000   0.78108706 5.9925364e-06   0.47713424            0            0   0.47713424    1.1423398    1.6194741    2.2331098 
 2610000   0.82013408 3.4770147e-05   0.43567224 0.0018650766            0   0.43380717    1.1994461    1.6351183    5.1955814 
 2615000   0.83001983 2.5112433e-05   0.44138767  0.011349454            0   0.43003822     1.213904    1.6552917    4.2268048 
 2620000   0.74508977 -1.1423527e-05   0.58100985  0.012708382            0   0.56830146    1.0896938    1.6707036   0.50093447 
 2625000   0.87464743 -1.5484007e-05   0.43097623 0.0032908777            0   0.42768535    1.2791719    1.7101481   0.12458577 
 2630000   0.87591224 3.0365809e-05   0.42232328 0.00072835124            0   0.42159493    1.2810217    1.7033449    4.8128038 
 2635000   0.87032655 7.8672133e-05   0.42937396 0.0077267579            0   0.42164721    1.2728526    1.7022265     9.758253 
 2640000   0.82396551 4.7915937e-05   0.44781889  0.037555404            0   0.41026349    1.2050496    1.6528685    6.5594604 
 2645000    0.8083428 -1.239373e-05   0.45910227  0.023433562            0   0.43566871    1.1822014    1.6413036   0.37218568 
 2650000   0.81745242 -2.3759351e-05   0.46017507  0.024056937            0   0.43611813    1.1955242    1.6556992  -0.77725826 
 2655000   0.80755153 -4.0304438e-05   0.51160468   0.01773212            0   0.49387256    1.1810441    1.6926488   -2.4345257 
 2660000   0.80424654 -3.8740426e-05   0.53082028  0.011021748            0   0.51979853    1.1762106    1.7070308   -2.2599888 
 2665000   0.80312949 -1.3379225e-05   0.54329225  0.027523592            0   0.51576866    1.1745769    1.7178691    0.3478365 
 2670000   0.81106975 -3.813973e-05   0.53668495  0.021786567            0   0.51489838    1.1861895    1.7228745   -2.1826339 
 2675000   0.85130995 -1.4663988e-06   0.46333469  0.008607569            0   0.45472712    1.2450408    1.7083755    1.5582163 
 2680000   0.81940695 6.3634947e-05   0.50324734  0.011284876            0   0.49196247    1.1983827      1.70163    8.2178485 
 2685000   0.87187372 4.7085366e-05   0.39787715  0.011123504            0   0.38675364    1.2751153    1.6729925     6.494534 
 2690000   0.71572811 -5.6835701e-05   0.57804889  0.013874845            0   0.56417405    1.0467524    1.6248013   -4.1951745 
 2695000   0.73590422 -0.00010038062   0.54365565  0.028398101            0   0.51525755    1.0762599    1.6199156   -8.6590596 
 2700000   0.68076006 -5.1827077e-05     0.639214  0.068280741            0   0.57093326   0.99561158    1.6348256   -3.6722671 
 2705000    0.6864164 2.5363804e-05   0.62190143  0.071137482            0   0.55076395     1.003884    1.6257854     4.223039 
 2710000   0.69391037 -1.6930725e-05    0.6416044  0.035900571            0   0.60570383    1.0148439    1.6564483 -0.077257964 
 2715000   0.64080969 -9.6497723e-05   0.68234898  0.039705363            0   0.64264362   0.93718417    1.6195332   -8.2618337 
 2720000   0.77836447 -7.0725326e-05   0.53173569  0.032648289            0    0.4990874     1.138358    1.6700937   -5.5721797 
 2725000   0.73860223 -2.6171599e-05   0.57842531  0.028898378            0   0.54952693    1.0802058    1.6586311   -1.0213407 
 2730000   0.82392124 -2.1731169e-06   0.45696381  0.011802555            0   0.44516126    1.2049848    1.6619486    1.4394215 
 2735000   0.81972922 3.2314819e-05   0.44239086  0.016674163            0    0.4257167     1.198854    1.6412448    4.9502823 
 2740000   0.69807526 3.6879317e-05    0.6458118  0.030196496            0   0.61561531    1.0209351    1.6667469    5.4431889 
 2745000   0.85226432 -3.7438934e-05   0.44128545  0.011679017            0   0.42960643    1.2464366     1.687722   -2.1460248 
 2750000   0.79250308 -0.00010551814    0.5477053  0.041807147            0   0.50589816    1.1590358    1.7067411    -9.098317 
 2755000   0.85847755 -6.3636222e-05   0.45299641  0.030737634            0   0.42225878    1.2555234    1.7085198   -4.8078293 
 2760000   0.83080081 4.1166664e-05   0.49849157  0.049614809            0   0.44887676    1.2150462    1.7135378    5.9290041 
 2765000   0.77802695 3.1866585e-05   0.58998595  0.015204887            0   0.57478106    1.1378644    1.7278504    4.9909886 
 2770000   0.83149433 3.3697029e-05   0.52536039 0.0076630185            0   0.51769737    1.2160605    1.7414208    5.1919966 
 2775000   0.89887535 2.1103305e-05   0.44478699 0.0075334336            0   0.43725356    1.3146052    1.7593922    3.9203706 
 2780000   0.74408737 4.4722186e-05   0.70465703  0.015181611            0   0.68947542    1.0882278    1.7928848    6.3724367 
 2785000   0.74515863 6.295137e-05   0.67133413  0.059958684            0   0.61137545    1.0897945    1.7611286    8.2073489 
 2790000    0.9303185 -4.308253e-05   0.37153676  0.046409776            0   0.32512699    1.3605908    1.7321276   -2.6795235 
 2795000    0.7758832 -0.00012275394   0.60154474   0.01272396            0   0.58882078    1.1347292    1.7362739    -10.83373 
 2800000   0.67082762 -4.0182231e-05   0.79438404  0.055745057            0   0.73863899   0.98108539    1.7754694    -2.339191 
 2805000   0.88694022 -7.5681681e-05   0.48948794 0.0043859706            0   0.48510196    1.2971501     1.786638   -5.9631661 
 2810000   0.94576795 -3.4909979e-05   0.36581452            0            0   0.36581452    1.3831856    1.7490001   -1.8257817 
 2815000   0.86643236 3.3018509e-05   0.44990467 0.0011157528            0   0.44878892    1.2671573     1.717062    5.0981573 
 2820000   0.71509189 -2.6354869e-07   0.66901614 0.0050679621            0   0.66394818    1.0458219     1.714838    1.6878506 
 2825000   0.77588314 3.8700884e-05   0.55812613  0.007887615            0   0.55023851    1.1347291    1.6928552    5.6558257 
 2830000   0.87713332 -4.1979972e-05   0.44286071 0.0060074439            0   0.43685326    1.2828075    1.7256682    -2.573081 
 2835000   0.86216932 1.5687015e-05   0.45907822  0.009301368            0   0.44977685    1.2609226    1.7200008    3.3263512 
 2840000   0.76787746 -9.4002334e-06   0.57173419 0.0088062879            0    0.5629279    1.1230208     1.694755   0.73217106 
 2845000     0.918015 -1.2006142e-05   0.32838076 0.0015755214            0   0.32680523    1.3425969    1.6709777   0.44154873 
 2850000   0.90905296 -3.1255477e-05     0.381235            0            0     0.381235    1.3294899    1.7107249   -1.4898359 
 2855000   0.78724138 -2.8005748e-05   0.53187645 0.0016614675            0   0.53021498    1.1513405     1.683217   -1.1845716 
 2860000   0.73390622 2.4362485e-05   0.61946056  0.038573696            0   0.58088686    1.0733378    1.6927984    4.1875169 
 2865000    0.8071411 -4.4894434e-05   0.48105472  0.026051514            0   0.45500321    1.1804439    1.6614986   -2.9356915 
 2870000   0.83170597 -4.1575755e-05   0.46194017 0.00049985598            0   0.46144031      1.21637    1.6783102   -2.5790472 
 2875000   0.84063335 -2.7597541e-05   0.46786701            0            0   0.46786701    1.2294263    1.6972933   -1.1286949 
 2880000   0.92722866 2.0894227e-05   0.36928943 0.00067933486            0   0.36861009    1.3560719    1.7253613    3.8649301 
 2885000   0.83106542 0.0001080091   0.51794038 0.0036906184            0   0.51424976    1.2154332    1.7333736    12.793506 
 2890000   0.87975064 -3.9380289e-05   0.45984334 0.0021986563            0   0.45764469    1.2866353    1.7464787   -2.2860629 
 2895000     0.940504 -8.1980143e-05   0.40192062 0.00092719372            0   0.40099342    1.3754871    1.7774077   -6.6173589 
 2900000   0.93520086 -5.3939788e-05   0.37824137 0.0029133616            0   0.37532801    1.3677313    1.7459726   -3.7774617 
 2905000   0.78116857 -2.4923834e-05     0.632896 0.0017940673            0   0.63110194     1.142459     1.775355  -0.77684554 
 2910000    0.9668581 -1.6359702e-05   0.43809499 0.0040003255            0   0.43409467      1.41403     1.852125   0.17689153 
 2915000   0.93714858 -4.6920323e-05    0.4866632 0.0055074914            0   0.48115571    1.3705798     1.857243   -2.9473981 
 2920000   0.99591541 3.7780397e-05   0.39005853 0.00066660146            0   0.38939192    1.4565263    1.8465848    5.7152975 
 2925000   0.97456325 4.133399e-06   0.41931322 0.0065010863            0   0.41281213    1.4252988     1.844612     2.267872 
 2930000   0.91373994 7.2618389e-05   0.46054319  0.015218927            0   0.44532426    1.3363447    1.7968879    9.2330109 
 2935000   0.94194682 -1.7366635e-05   0.41996594 0.0036116561            0   0.41635428    1.3775972    1.7975632  0.019219768 
 2940000   0.95732851 -5.3302995e-05   0.40811896 0.00075495153            0   0.40736401     1.400093    1.8082119   -3.6500148 
 2945000   0.86896324 -3.3774535e-05    0.5015076 0.0026352199            0   0.49887238    1.2708587    1.7723663   -1.6861461 
 2950000   0.86968181 -4.2824973e-05   0.51528891  0.031869659            0   0.48341925    1.2719096    1.7871985   -2.5980787 
 2955000   0.90781788 4.6536939e-05    0.5205884  0.028823823            0   0.49176458    1.3276837    1.8482721    6.6136546 
 2960000   0.98930777 -1.2543526e-05   0.43435412 0.00014480004            0   0.43420932    1.4468626    1.8812167    0.5967597 
 2965000    0.9392791 6.5392545e-05   0.51326318            0            0   0.51326318    1.3736957    1.8869589    8.5831555 
 2970000    1.0157073 -2.6128166e-06   0.40379885 0.0040602721            0   0.39973858    1.4854719    1.8892707    1.6217183 
 2975000   0.91166024 -9.6061819e-05   0.57733067  0.019439517            0   0.55789115    1.3333031    1.9106338   -7.9260964 
 2980000    1.0226673 9.3634146e-05   0.45067675  0.029702407            0   0.42097434     1.495651    1.9463277    11.534464 
 2985000    1.0385454 8.3037703e-05   0.41619571 0.0046538886            0   0.41154182    1.5188727    1.9350684    10.438129 
 2990000   0.97503519 -9.9150696e-05   0.50124732  0.010878497            0   0.49036882     1.425989    1.9272363    -8.225795 
 2995000    1.0163972 -3.3054024e-05   0.44993541  0.075405197            0   0.37453021    1.4864809    1.9364163   -1.4483157 
[...]
19285000   0.90030107 -7.6611754e-05   0.53627259  0.016656257            0   0.51961633    1.3166903    1.8529629   -5.9920807 
19290000   0.88356471 -4.7877683e-05   0.57037905   0.10164529            0   0.46873376    1.2922134    1.8625924   -3.0400823 
19295000    1.0523544 -1.082633e-05   0.30963043   0.01998701            0   0.28964342    1.5390683    1.8486987   0.74008254 
19300000   0.87826251 5.3151839e-05   0.57424183  0.039247039            0   0.53499479    1.2844589    1.8587008     7.301449 
19305000    0.9976883 4.3151947e-05   0.36753297 0.0094319555            0   0.35810101    1.4591191    1.8266521    6.2454115 
19310000    0.8883987 2.7569908e-05   0.48543247 0.0003658919            0   0.48506658    1.2992831    1.7847156    4.6078742 
19315000   0.94842556 -1.0180269e-05   0.43020657  0.010873638            0   0.41933293    1.3870724     1.817279   0.77481944 
19320000   0.92268942 3.0497154e-05   0.44692923  0.043902872            0   0.40302636    1.3494333    1.7963625    4.9192711 
19325000   0.98898735 -2.6735241e-06   0.34916215  0.015368998            0   0.33379315     1.446394    1.7955562    1.5217873 
19330000   0.92461805 -2.4976931e-05   0.41642647 0.0012596046            0   0.41516686    1.3522539    1.7686804  -0.78895737 
19335000   0.96881226 -2.947417e-06   0.34900514 0.0023071136            0   0.34669803    1.4168879    1.7658931    1.4640776 
19340000   0.96350819 1.6342407e-05   0.42263811 0.0015837913            0   0.42105431    1.4091307    1.8317688    3.5052313 
19345000   0.93658158 -7.5530421e-06    0.4832546 0.00016767516            0   0.48308692    1.3697506    1.8530052    1.0795737 
19350000   0.97444273 1.6076935e-05   0.41773505            0            0   0.41773505    1.4251225    1.8428575    3.4891357 
19355000    1.0024464 1.4841676e-06   0.35956872            0            0   0.35956872    1.4660779    1.8256466    1.9776254 
19360000    1.0594651 -4.0262928e-05   0.30548685            0            0   0.30548685    1.5494677    1.8549545   -2.2679693 
19365000   0.92824005 -3.899292e-06   0.50387352 0.0062837817            0   0.49758974    1.3575511    1.8614246    1.4621371 
19370000   0.96713372 2.6658866e-05   0.45401413  0.037100307            0   0.41691383    1.4144331    1.8684472     4.598315 
19375000   0.94247382 2.9867824e-05   0.47434967  0.035025368            0    0.4393243     1.378368    1.8527176    4.9111828 
19380000   0.95830066 -3.8006234e-05   0.47647503 0.0023466581            0   0.47412837    1.4015147    1.8779898   -2.0138486 
19385000   0.95117551 -3.9496009e-05   0.45879127  0.012177852            0   0.44661342    1.3910942    1.8498855   -2.1945058 
19390000    1.0384589 2.6441379e-05   0.35495019  0.032759051            0   0.32219114    1.5187461    1.8736963    4.5812935 
19395000   0.93371827 1.929405e-05   0.46702769  0.015143257            0   0.45188443     1.365563    1.8325907    3.8083014 
19400000   0.88413042 1.3430639e-05    0.5586053  0.014721547            0   0.54388375    1.2930407     1.851646    3.2269435 
19405000   0.85946522 -7.8322723e-06   0.61254044  0.054312331            0   0.55822811    1.2569679    1.8695083    1.0674836 
19410000    0.9460974 4.7563611e-05   0.46754151  0.023101796            0   0.44443971    1.3836674     1.851209    6.7217227 
19415000   0.89868432 1.8027476e-05   0.53107135 0.0061218856            0   0.52494946    1.3143258    1.8453972    3.6914107 
19420000    1.0718182 4.3009801e-05   0.31696606 0.00039352151            0   0.31657254    1.5675341    1.8845002    6.2887039 
19425000   0.98932188 3.4741785e-05   0.46398244 0.00066335146            0   0.46331908    1.4468833    1.9108657    5.4684245 
19430000    1.0663046 -3.6195781e-05   0.35681645 0.00010396747            0   0.35671249    1.5594705     1.916287    -1.790161 
19435000    1.0423082 -7.174361e-05   0.43594683            0            0   0.43594683    1.5243757    1.9603225   -5.3862231 
19440000   0.94298885  -5.5219e-05   0.52907617            0            0   0.52907617    1.3791212    1.9081974   -3.7462283 
19445000    1.0628334 -6.2654715e-06   0.36596917 0.00039395432            0   0.36557521    1.5543939    1.9203631    1.2787788 
19450000    1.0312197 4.6181243e-05   0.47689542 0.0044128261            0    0.4724826    1.5081587    1.9850542    6.7140135 
19455000    1.0434272 5.162447e-05    0.4843745  0.049309533            0   0.43506496    1.5260122    2.0103867    7.2967324 
19460000    1.0840628 -5.213104e-07    0.4310669  0.043420938            0   0.38764597    1.5854418    2.0165087    1.9631265 
19465000    1.0951513 1.0818926e-06   0.41219717 0.00032675966            0   0.41187041    1.6016588    2.0138559    2.1246417 
19470000    1.1072381 2.7948008e-05   0.39167642            0            0   0.39167642    1.6193358    2.0110122    4.8728882 
19475000     1.036506 -1.4938336e-05   0.49577337  0.030117818            0   0.46565555    1.5158901    2.0116634   0.48197783 
19480000    1.0408215 -2.0479178e-05   0.50117845    0.1483836            0   0.35279485    1.5222015    2.0233799 -0.073687859 
19485000    1.0896217 5.6835856e-05   0.43711585   0.02239895            0    0.4147169    1.5935718    2.0306876    7.8506794 
19490000    1.0477599 7.7034549e-05   0.50030792  0.020076155            0   0.48023176    1.5323489    2.0326568    9.9209946 
19495000    1.0339399 -8.402899e-06   0.48062939  0.026180674            0   0.45444871     1.512137    1.9927664    1.1323096 
19500000    1.1323226 1.3839631e-06   0.33970568 0.0016847404            0   0.33802094    1.6560218    1.9957275    2.1374453 
19505000     1.072253 6.1824107e-05   0.40840726 0.0048784521            0   0.40352881      1.56817    1.9765773    8.3073659 
19510000    1.0887208 0.00011407953   0.36344208  0.035291701            0   0.32815038    1.5922542    1.9556962    13.637441 
19515000    1.1434505 7.5981006e-05   0.33776492  0.031745603            0   0.30601932    1.6722963    2.0100612    9.7905163 
19520000    1.1151381 -1.9583227e-05   0.39023714  0.014403111            0   0.37583403    1.6308894    2.0211266  0.015804149 
19525000    1.1203309 -4.5919518e-05   0.35158534  0.034093419            0   0.31749192     1.638484    1.9900693   -2.7120893 
19530000    1.1333125 -5.989939e-05   0.32993839  0.022456759            0   0.30748163    1.6574695    1.9874079   -4.1462897 
19535000    1.0535137 -9.3393314e-06   0.44117791  0.034463603            0   0.40671431    1.5407637    1.9819416    1.0255941 
19540000    1.0738977 3.1085636e-05   0.39962591  0.033390258            0   0.36623565    1.5705753    1.9702013    5.1533704 
19545000      1.11188 -2.1854403e-05   0.33976578 0.0043318409            0   0.33543393    1.6261244    1.9658902  -0.27200065 
19550000    1.0123608 2.0144557e-05   0.45395147  0.015684763            0    0.4382667    1.4805776    1.9345291    3.9973317 
19555000    1.0232996 4.7754853e-05   0.44170389 0.0074773168            0   0.43422657    1.4965757    1.9382796    6.8283765 
19560000    1.1110787 9.4609559e-06   0.29158231 0.0092888962            0   0.28229341    1.6249526    1.9165349    2.8853368 
19565000   0.97989646 -4.5119576e-05   0.49684334  0.024184812            0   0.47265853    1.4330986    1.9299419   -2.6903027 
19570000    1.0416987 -3.6978116e-05   0.40202996  0.031608141            0   0.37042181    1.5234843    1.9255142   -1.8610448 
19575000    1.0843131 -2.517033e-06   0.37051342 0.0013998453            0   0.36911358    1.5858079    1.9563213    1.6985771 
19580000    1.0467958 1.2762646e-05   0.42815628 0.0034893201            0   0.42466696    1.5309388    1.9590951    3.2659901 
19585000   0.98714094 4.9911403e-05   0.51072442 0.0053321478            0   0.50539227    1.4436936     1.954418    7.0653457 
19590000    1.0304418 -7.1917276e-05   0.45219545 0.0081867519            0    0.4440087    1.5070211    1.9592166   -5.4051125 
19595000   0.99917567 -6.5185294e-05   0.44982272  0.020381428            0   0.42944129    1.4612944    1.9111171    -4.763857 
19600000   0.99303859 4.2254849e-06   0.44531313   0.04881541            0   0.39649772    1.4523189    1.8976321    2.3303217 
19605000    1.0302773 -2.5011338e-05   0.45084474  0.029049504            0   0.42179524    1.5067806    1.9576253  -0.60353576 
19610000    1.0692534 2.1752137e-05   0.38940294  0.039413048            0   0.34998989    1.5637831     1.953186    4.1806049 
19615000   0.97357856 4.7370718e-05   0.49869618  0.085691043            0   0.41300513    1.4238586    1.9225548    6.7733163 
19620000    1.0191107 -5.2854846e-07   0.45919602  0.035179338            0   0.42401668    1.4904494    1.9496454    1.8955221 
19625000   0.96824139 -4.6568584e-06   0.48053713  0.061592404            0   0.41894473     1.416053    1.8965902    1.4197279 
19630000    1.0153574 5.2468872e-05   0.43715925  0.026035083            0   0.41112416    1.4849602    1.9221195    7.2949319 
19635000    1.0485662 6.7786712e-05   0.37749149  0.021559084            0   0.35593241    1.5335281    1.9110196    8.8523789 
19640000   0.98485959 2.2290711e-06   0.46101622 0.0046854168            0    0.4563308    1.4403571    1.9013734    2.1296302 
19645000   0.96976155 -8.3297055e-05    0.4541853  0.001459094            0   0.45272621    1.4182763    1.8724616   -6.6571569 
19650000   0.94881334 5.7840065e-06   0.44479849  0.028599686            0    0.4161988    1.3876395     1.832438    2.4247203 
19655000   0.88188255 -1.1074823e-05   0.50367561   0.11404215            0   0.38963345    1.2897532    1.7934288   0.65936695 
19660000   0.89382656 -1.6587358e-05   0.49616101  0.063003155            0   0.43315786    1.3072213    1.8033824   0.10483688 
19665000   0.94786681 3.767629e-05   0.41725555 0.0084173977            0   0.40883816    1.3862552    1.8035108    5.6615629 
19670000   0.93537474 -6.1320107e-05   0.43494003            0            0   0.43494003    1.3679856    1.8029256   -4.4762534 
19675000   0.97619958 -2.8735528e-05   0.35731007            0            0   0.35731007    1.4276919     1.785002   -1.1575161 
19680000   0.93856458 1.7451759e-05   0.41602596            0            0   0.41602596    1.3726507    1.7886767    3.5757368 
19685000   0.96663546 2.818857e-06   0.38789507  0.002806619            0   0.38508845    1.4137044    1.8015994    2.0902504 
19690000   0.93728815 -2.8136061e-06   0.44725438  0.021176991            0   0.42607739    1.3707839    1.8180383     1.529925 
19695000   0.96792007 -5.7911509e-06   0.39855439  0.020203007            0   0.37835138    1.4155831    1.8141375    1.2211236 
19700000    1.0342882 -5.3541423e-05   0.31089626 0.0054789709            0   0.30541729    1.5126465    1.8235428    -3.659099 
19705000    1.0004177 -3.3335431e-05   0.34085706  0.022436209            0   0.31842085    1.4631109    1.8039679   -1.6095802 
19710000   0.97547802 5.1073172e-05   0.37846555  0.024341064            0   0.35412449    1.4266366    1.8051022     7.034995 
19715000   0.91267511 9.5339896e-05   0.44691246  0.033064288            0   0.41384817    1.3347874    1.7816998    11.544505 
19720000   0.94438115 8.2117955e-05   0.38213847   0.02820606            0   0.35393241    1.3811574    1.7632959    10.172175 
19725000     1.040699 3.9119766e-05   0.25644624 0.00026206312            0   0.25618417    1.5220223    1.7784685    5.7843326 
19730000    1.0464329 -1.1747772e-05   0.25299468  0.019451703            0   0.23354297    1.5304082    1.7834029   0.58043098 
19735000   0.92616046 -5.181549e-05   0.45475252  0.059469003            0   0.39528352    1.3545097    1.8092622    -3.496644 
19740000   0.85809089 -5.436148e-05   0.53031557  0.075886063            0   0.45442951    1.2549579    1.7852735    -3.781342 
19745000   0.95115272 -8.2236146e-06   0.38157655    0.0370053            0   0.34457125    1.3910609    1.7726374   0.93053927 
19750000    1.0051989 1.3454077e-05    0.2898043  0.033863798            0    0.2559405    1.4701034    1.7599077    3.1376052 
19755000   0.92227909 8.722352e-07    0.4260191  0.051283007            0   0.37473609    1.3488332    1.7748523    1.8641692 
19760000     1.002293 -2.1760974e-06   0.32973794  0.023120161            0   0.30661778    1.4658535    1.7955915    1.5727591 
19765000   0.95046456 -4.4357879e-07   0.38149292 0.0077047198            0    0.3737882    1.3900544    1.7715473    1.7261249 
19770000    1.0146263 7.9903408e-06   0.31083427  0.020853766            0   0.28998051    1.4838909    1.7947252    2.6129361 
19775000    1.0054455 -3.6043132e-05   0.29662296  0.018498114            0   0.27812484     1.470464    1.7670869   -1.9237298 
19780000   0.94790997 -5.67757e-05   0.40815614  0.011856445            0    0.3962997    1.3863183    1.7944745   -4.0193572 
19785000   0.94552995 -5.9906056e-05   0.38056182  0.035183898            0   0.34537792    1.3828376    1.7633994   -4.3709808 
19790000   0.91391491 -4.9562669e-05   0.42183753  0.055099715            0   0.36673781    1.3366006    1.7584381   -3.3167793 
19795000   0.99347698 4.1335102e-05    0.2623858     0.036715            0    0.2256708    1.4529601    1.7153459    5.9480603 
19800000   0.92404492 4.9308777e-05   0.34330366  0.020104037            0   0.32319963    1.3514157    1.6947194    6.7439381 
19805000   0.89638559 -2.3543879e-05   0.36631206  0.036477117            0   0.32983495    1.3109639     1.677276  -0.73361726 
19810000     0.869507 -4.915234e-05   0.40003064  0.036451531            0   0.36357911     1.271654    1.6716846    -3.361515 
19815000   0.98484853 -3.8098388e-05   0.25171237 0.0078432211            0   0.24386915     1.440341    1.6920533   -2.2092216 
19820000   0.88582379 -3.7006117e-05   0.36830758  0.027337507            0   0.34097007    1.2955173    1.6638249   -2.1256015 
19825000   0.90548606 -5.4568927e-05   0.31976204  0.014914311            0   0.30484773    1.3242734    1.6440354   -3.9438227 
19830000   0.86328685 -4.0601166e-05   0.35593127  0.039799327            0   0.31613195     1.262557    1.6184883   -2.5390711 
19835000   0.86453122 -1.0235114e-05   0.32676828  0.048832724            0   0.27793555    1.2643769    1.5911452   0.54306955 
19840000   0.81933986 -4.8660223e-07   0.37797619 0.0049477408            0   0.37302845    1.1982845    1.5762607    1.5264327 
19845000   0.92208293 7.9664723e-06   0.27051043            0            0   0.27051043    1.3485463    1.6190567    2.4348235 
19850000   0.88256595 -4.7294049e-05   0.35770697            0            0   0.35770697    1.2907527    1.6484597    -3.194451 
19855000   0.92725947 -1.2211298e-05   0.30172236            0            0   0.30172236     1.356117    1.6578393   0.40740242 
19860000   0.91510294 4.3701902e-05    0.3525953            0            0    0.3525953     1.338338    1.6909333    6.1660081 
19865000   0.96344515 2.9213814e-05   0.27246542 0.0016694188            0     0.270796    1.4090385     1.681504    4.6729985 
19870000   0.91734697 2.3567847e-05   0.32252804 0.0061086283            0   0.31641941    1.3416199     1.664148    4.0774955 
19875000   0.84218211 -3.234263e-05   0.37987289   0.01326496            0   0.36660794    1.2316913    1.6115642    -1.700321 
19880000   0.84673745 -6.5065091e-05   0.37130691  0.011621405            0   0.35968551    1.2383535    1.6096604   -5.0530048 
19885000   0.88657716 -5.0443021e-05   0.34863676 0.0038937365            0   0.34474302    1.2966191    1.6452559   -3.5201094 
19890000   0.92669806 -6.2292531e-05    0.2807046            0            0    0.2807046    1.3552959    1.6360005   -4.7427547 
19895000   0.85906437 -0.00010947453   0.35917505            0            0   0.35917505    1.2563816    1.6155567   -9.5946357 
19900000   0.82655767 -1.3566298e-05   0.36458774            0            0   0.36458774    1.2088406    1.5734283   0.18423944 
19905000   0.83615447 -1.4519602e-06   0.33539137            0            0   0.33539137    1.2228759    1.5582673    1.4095866 
19910000   0.90606416 -3.2592137e-05   0.26045596 0.0024468911            0   0.25800907    1.3251188    1.5855748     -1.75186 
19915000   0.87746692 2.7429103e-05   0.30650161  0.010473823            0   0.29602779    1.2832954     1.589797    4.3985371 
19920000   0.83774989 7.6741067e-05   0.36708456  0.023049951            0   0.34403461    1.2252092    1.5922938     9.450579 
19925000   0.76252705 8.1530491e-05   0.47520954  0.028210813            0   0.44699872    1.1151958    1.5904053    9.9391276 
19930000   0.89953644 7.6705894e-05   0.28538914   0.02107514            0     0.264314     1.315572    1.6009612    9.4556447 
19935000   0.88980769 3.6535594e-05   0.27846032 0.0027817421            0   0.27567857    1.3013438    1.5798041    5.3210488 
19940000   0.92111098 7.1963885e-06   0.28399538 0.00081686273            0   0.28317852    1.3471248    1.6311202    2.3680304 
19945000   0.84676347 -3.5904394e-06   0.43037351  0.060052533            0   0.37032098    1.2383916    1.6687651    1.3011041 
19950000    0.8982131 -2.7350987e-05   0.36474615  0.038426963            0   0.32631919    1.3136367    1.6783828   -1.1223583 
19955000   0.87982756 -2.9423011e-05   0.40423608  0.027136594            0   0.37709949    1.2867478    1.6909839   -1.3219325 
19960000   0.92512497 1.2362702e-05   0.31076441 0.0031993734            0   0.30756503    1.3529953    1.6637597    2.9297003 
19965000   0.93799545  2.50724e-05   0.32352843 0.00037138499            0   0.32315704    1.3718183    1.6953468    4.2627606 
19970000    0.8977829 1.4263534e-05   0.41652405 0.0026646893            0   0.41385936    1.3130075    1.7295315    3.1901174 
19975000   0.97388798 1.3108346e-05   0.32035607  0.016649505            0   0.30370657    1.4243112    1.7446672    3.0869618 
19980000   0.92385485 1.7300578e-05   0.44500877  0.048312783            0   0.39669598    1.3511377    1.7961465    3.5677256 
19985000    1.0154595 4.3245286e-05   0.35214449  0.019748669            0   0.33239583    1.4851096    1.8372541    6.2655714 
19990000   0.96609307 3.4611242e-05   0.43684096 0.00066929904            0   0.43617166    1.4129111    1.8497521    5.3939433 
19995000   0.99882661 2.7069804e-05   0.37852174 0.0040519638            0   0.37446978    1.4607839    1.8393057    4.6112536 
20000000    1.0179529 -4.3123329e-05   0.37418986 0.0076575299            0   0.36653233    1.4887562     1.862946   -2.5528829 
Loop time of 130.038 on 1 procs for 20000000 steps with 40 atoms

Performance: 132884.152 tau/day, 153801.102 timesteps/s
99.3% CPU use with 1 MPI tasks x no OpenMP threads

MPI task timing breakdown:
Section |  min time  |  avg time  |  max time  |%varavg| %total
---------------------------------------------------------------
Pair    | 5.168      | 5.168      | 5.168      |   0.0 |  3.97
Bond    | 12.983     | 12.983     | 12.983     |   0.0 |  9.98
Neigh   | 18.498     | 18.498     | 18.498     |   0.0 | 14.22
Comm    | 46.604     | 46.604     | 46.604     |   0.0 | 35.84
Output  | 0.32138    | 0.32138    | 0.32138    |   0.0 |  0.25
Modify  | 41.36      | 41.36      | 41.36      |   0.0 | 31.81
Other   |            | 5.103      |            |       |  3.92

Nlocal:        40.0000 ave          40 max          40 min
Histogram: 1 0 0 0 0 0 0 0 0 0
Nghost:        0.00000 ave           0 max           0 min
Histogram: 1 0 0 0 0 0 0 0 0 0
Neighs:        16.0000 ave          16 max          16 min
Histogram: 1 0 0 0 0 0 0 0 0 0

Total # of neighbors = 16
Ave neighs/atom = 0.4
Ave special neighs/atom = 5.7000000
Neighbor list builds = 3621
Dangerous builds = 0
write_restart restart.equil
System init for write_restart ...
WARNING: Communication cutoff 1.4200000000000002 is shorter than a bond length based estimate of 1.8. This may lead to errors. (../comm.cpp:667)
#--------------End of Input file ------------------
Total wall time: 0:02:10
