ITEM: TIMESTEP
0
ITEM: NUMBER OF ATOMS
200
ITEM: BOX BOUNDS pp pp pp
-2.5000000000000000e+01 2.5000000000000000e+01
-2.5000000000000000e+01 2.5000000000000000e+01
-2.5000000000000000e+01 2.5000000000000000e+01
ITEM: ATOMS id type xs ys zs ix iy iz
12 1 0.477181 0.491614 0.477181 0 0 0
13 1 0.47649 0.492199 0.47649 0 0 0
14 1 0.483636 0.510479 0.483636 0 0 0
85 1 0.478517 0.592588 0.478517 0 0 0
84 1 0.484014 0.611807 0.484014 0 0 0
7 1 0.494425 0.484066 0.494425 0 0 0
1 1 0.5 0.5 0.5 0 0 0
2 1 0.497369 0.499543 0.497369 0 0 0
3 1 0.510142 0.509557 0.510142 0 0 0
6 1 0.498846 0.501532 0.498846 0 0 0
8 1 0.508999 0.489588 0.508999 0 0 0
9 1 0.509119 0.491675 0.509119 0 0 0
10 1 0.494369 0.498775 0.494369 0 0 0
11 1 0.494315 0.494897 0.494315 0 0 0
15 1 0.489513 0.526569 0.489513 0 0 0
16 1 0.492436 0.540643 0.492436 0 0 0
98 1 0.510874 0.541112 0.510874 0 0 0
99 1 0.511625 0.542834 0.511625 0 0 0
100 1 0.505429 0.541239 0.505429 0 0 0
101 1 0.501037 0.536102 0.501037 0 0 0
109 1 0.511771 0.5178 0.511771 0 0 0
17 1 0.487151 0.557668 0.487151 0 0 0
18 1 0.500851 0.553326 0.500851 0 0 0
20 1 0.51113 0.566743 0.51113 0 0 0
76 1 0.508731 0.552859 0.508731 0 0 0
77 1 0.506088 0.569796 0.506088 0 0 0
78 1 0.513101 0.562612 0.513101 0 0 0
79 1 0.49521 0.567447 0.49521 0 0 0
80 1 0.502083 0.567299 0.502083 0 0 0
89 1 0.507541 0.57179 0.507541 0 0 0
90 1 0.489781 0.568665 0.489781 0 0 0
91 1 0.495193 0.572395 0.495193 0 0 0
92 1 0.493868 0.572975 0.493868 0 0 0
93 1 0.505188 0.558504 0.505188 0 0 0
21 1 0.505649 0.585975 0.505649 0 0 0
22 1 0.511407 0.593665 0.511407 0 0 0
23 1 0.511128 0.593562 0.511128 0 0 0
81 1 0.503739 0.577963 0.503739 0 0 0
82 1 0.509892 0.592855 0.509892 0 0 0
83 1 0.502653 0.604556 0.502653 0 0 0
86 1 0.491228 0.577293 0.491228 0 0 0
87 1 0.498461 0.585001 0.498461 0 0 0
4 1 0.520128 0.496809 0.520128 0 0 0
5 1 0.518369 0.497265 0.518369 0 0 0
39 1 0.537866 0.498871 0.537866 0 0 0
40 1 0.524848 0.511342 0.524848 0 0 0
106 1 0.521333 0.511513 0.521333 0 0 0
107 1 0.524736 0.502266 0.524736 0 0 0
108 1 0.526406 0.508257 0.526406 0 0 0
30 1 0.534368 0.543493 0.534368 0 0 0
33 1 0.54227 0.528399 0.54227 0 0 0
36 1 0.539739 0.526809 0.539739 0 0 0
38 1 0.542685 0.517611 0.542685 0 0 0
41 1 0.539404 0.523264 0.539404 0 0 0
42 1 0.539051 0.530225 0.539051 0 0 0
43 1 0.529218 0.539652 0.529218 0 0 0
44 1 0.529402 0.534708 0.529402 0 0 0
45 1 0.53015 0.529678 0.53015 0 0 0
47 1 0.545225 0.521051 0.545225 0 0 0
48 1 0.540504 0.540411 0.540504 0 0 0
102 1 0.518379 0.543939 0.518379 0 0 0
103 1 0.529095 0.535986 0.529095 0 0 0
104 1 0.528892 0.542019 0.528892 0 0 0
105 1 0.527655 0.52241 0.527655 0 0 0
110 1 0.523393 0.51599 0.523393 0 0 0
111 1 0.530357 0.533611 0.530357 0 0 0
19 1 0.519181 0.558669 0.519181 0 0 0
26 1 0.530568 0.569622 0.530568 0 0 0
28 1 0.535125 0.569991 0.535125 0 0 0
29 1 0.529371 0.550868 0.529371 0 0 0
31 1 0.539275 0.547467 0.539275 0 0 0
32 1 0.535564 0.546325 0.535564 0 0 0
72 1 0.543932 0.550853 0.543932 0 0 0
73 1 0.538338 0.557805 0.538338 0 0 0
74 1 0.53086 0.551433 0.53086 0 0 0
75 1 0.528511 0.552275 0.528511 0 0 0
94 1 0.521622 0.557822 0.521622 0 0 0
95 1 0.5272 0.57353 0.5272 0 0 0
96 1 0.52657 0.57355 0.52657 0 0 0
97 1 0.519633 0.555443 0.519633 0 0 0
24 1 0.522812 0.596411 0.522812 0 0 0
25 1 0.532452 0.589423 0.532452 0 0 0
27 1 0.542865 0.582599 0.542865 0 0 0
88 1 0.518105 0.588755 0.518105 0 0 0
34 1 0.549629 0.509803 0.549629 0 0 0
146 1 0.571589 0.504592 0.571589 0 0 0
35 1 0.546563 0.518223 0.546563 0 0 0
37 1 0.558526 0.529817 0.558526 0 0 0
46 1 0.549002 0.527247 0.549002 0 0 0
49 1 0.560153 0.543624 0.560153 0 0 0
61 1 0.571663 0.536447 0.571663 0 0 0
65 1 0.569978 0.545274 0.569978 0 0 0
66 1 0.565138 0.52852 0.565138 0 0 0
67 1 0.565526 0.528559 0.565526 0 0 0
68 1 0.558376 0.545287 0.558376 0 0 0
112 1 0.550027 0.536716 0.550027 0 0 0
113 1 0.554173 0.542668 0.554173 0 0 0
114 1 0.568311 0.53392 0.568311 0 0 0
115 1 0.572786 0.517045 0.572786 0 0 0
116 1 0.575503 0.53663 0.575503 0 0 0
137 1 0.570739 0.541653 0.570739 0 0 0
143 1 0.569862 0.539612 0.569862 0 0 0
144 1 0.571898 0.526788 0.571898 0 0 0
145 1 0.55895 0.519152 0.55895 0 0 0
147 1 0.567834 0.52317 0.567834 0 0 0
148 1 0.574365 0.525795 0.574365 0 0 0
50 1 0.557504 0.549078 0.557504 0 0 0
51 1 0.553973 0.565972 0.553973 0 0 0
52 1 0.569339 0.558875 0.569339 0 0 0
58 1 0.554292 0.575256 0.554292 0 0 0
59 1 0.548609 0.562777 0.548609 0 0 0
60 1 0.557016 0.549777 0.557016 0 0 0
62 1 0.566101 0.545548 0.566101 0 0 0
63 1 0.55466 0.561705 0.55466 0 0 0
64 1 0.573044 0.563468 0.573044 0 0 0
69 1 0.563897 0.555634 0.563897 0 0 0
70 1 0.573867 0.562212 0.573867 0 0 0
71 1 0.556325 0.565376 0.556325 0 0 0
120 1 0.574131 0.563264 0.574131 0 0 0
121 1 0.574916 0.571352 0.574916 0 0 0
124 1 0.57551 0.56223 0.57551 0 0 0
130 1 0.574255 0.573971 0.574255 0 0 0
136 1 0.57249 0.54733 0.57249 0 0 0
57 1 0.567732 0.577461 0.567732 0 0 0
125 1 0.561286 0.57626 0.561286 0 0 0
126 1 0.575644 0.585281 0.575644 0 0 0
186 1 0.600637 0.509985 0.600637 0 0 0
117 1 0.587202 0.521029 0.587202 0 0 0
118 1 0.592519 0.536137 0.592519 0 0 0
119 1 0.58147 0.544908 0.58147 0 0 0
138 1 0.587258 0.535675 0.587258 0 0 0
139 1 0.593721 0.52468 0.593721 0 0 0
140 1 0.591988 0.542494 0.591988 0 0 0
142 1 0.589413 0.535743 0.589413 0 0 0
149 1 0.590052 0.537712 0.590052 0 0 0
153 1 0.603128 0.540345 0.603128 0 0 0
154 1 0.595609 0.523376 0.595609 0 0 0
155 1 0.594327 0.534202 0.594327 0 0 0
156 1 0.591818 0.536168 0.591818 0 0 0
189 1 0.605554 0.540077 0.605554 0 0 0
193 1 0.60167 0.523868 0.60167 0 0 0
199 1 0.595913 0.531652 0.595913 0 0 0
200 1 0.596691 0.532272 0.596691 0 0 0
53 1 0.57603 0.573928 0.57603 0 0 0
54 1 0.5913 0.561206 0.5913 0 0 0
55 1 0.594168 0.567123 0.594168 0 0 0
56 1 0.579258 0.566798 0.579258 0 0 0
122 1 0.576341 0.571073 0.576341 0 0 0
123 1 0.578597 0.572268 0.578597 0 0 0
131 1 0.581506 0.556245 0.581506 0 0 0
132 1 0.589525 0.557347 0.589525 0 0 0
133 1 0.59857 0.572209 0.59857 0 0 0
135 1 0.578135 0.561429 0.578135 0 0 0
141 1 0.586398 0.55344 0.586398 0 0 0
157 1 0.585477 0.554223 0.585477 0 0 0
158 1 0.594808 0.558432 0.594808 0 0 0
159 1 0.584408 0.566399 0.584408 0 0 0
160 1 0.593554 0.568955 0.593554 0 0 0
161 1 0.593502 0.570162 0.593502 0 0 0
162 1 0.589375 0.574168 0.589375 0 0 0
163 1 0.594634 0.555024 0.594634 0 0 0
197 1 0.605415 0.548884 0.605415 0 0 0
127 1 0.587307 0.600994 0.587307 0 0 0
128 1 0.580656 0.603245 0.580656 0 0 0
129 1 0.585848 0.587861 0.585848 0 0 0
134 1 0.587686 0.578646 0.587686 0 0 0
187 1 0.618892 0.511045 0.618892 0 0 0
150 1 0.609994 0.537827 0.609994 0 0 0
152 1 0.606597 0.535502 0.606597 0 0 0
167 1 0.615935 0.542504 0.615935 0 0 0
168 1 0.633502 0.544617 0.633502 0 0 0
169 1 0.634947 0.544315 0.634947 0 0 0
178 1 0.627701 0.519059 0.627701 0 0 0
180 1 0.633698 0.529427 0.633698 0 0 0
181 1 0.626248 0.529289 0.626248 0 0 0
182 1 0.62852 0.529201 0.62852 0 0 0
183 1 0.620717 0.536353 0.620717 0 0 0
184 1 0.620962 0.537123 0.620962 0 0 0
185 1 0.617138 0.519745 0.617138 0 0 0
188 1 0.610381 0.528354 0.610381 0 0 0
190 1 0.608579 0.539087 0.608579 0 0 0
191 1 0.610008 0.536166 0.610008 0 0 0
192 1 0.615821 0.538001 0.615821 0 0 0
194 1 0.620688 0.520539 0.620688 0 0 0
195 1 0.636043 0.532094 0.636043 0 0 0
196 1 0.618877 0.535606 0.618877 0 0 0
198 1 0.609519 0.529458 0.609519 0 0 0
151 1 0.613935 0.550314 0.613935 0 0 0
164 1 0.614151 0.552975 0.614151 0 0 0
165 1 0.619651 0.549674 0.619651 0 0 0
166 1 0.619169 0.548812 0.619169 0 0 0
171 1 0.631419 0.548803 0.631419 0 0 0
175 1 0.639431 0.513042 0.639431 0 0 0
179 1 0.647126 0.514652 0.647126 0 0 0
172 1 0.640556 0.532147 0.640556 0 0 0
173 1 0.640944 0.529386 0.640944 0 0 0
174 1 0.640076 0.523104 0.640076 0 0 0
176 1 0.647233 0.523633 0.647233 0 0 0
177 1 0.647144 0.523446 0.647144 0 0 0
170 1 0.639238 0.559813 0.639238 0 0 0
ITEM: TIMESTEP
1000
ITEM: NUMBER OF ATOMS
200
ITEM: BOX BOUNDS pp pp pp
-2.5000000000000000e+01 2.5000000000000000e+01
-2.5000000000000000e+01 2.5000000000000000e+01
-2.5000000000000000e+01 2.5000000000000000e+01
ITEM: ATOMS id type xs ys zs ix iy iz
12 1 0.38783 0.440174 0.424088 0 0 0
13 1 0.389122 0.451179 0.4055 0 0 0
14 1 0.387257 0.446938 0.38213 0 0 0
85 1 0.335294 0.742124 0.327711 0 0 0
84 1 0.311214 0.74039 0.33673 0 0 0
7 1 0.367367 0.360032 0.389401 0 0 0
1 1 0.319746 0.380567 0.27162 0 0 0
2 1 0.335999 0.375555 0.286429 0 0 0
3 1 0.344986 0.36661 0.303263 0 0 0
6 1 0.359236 0.3593 0.365662 0 0 0
8 1 0.37969 0.367867 0.40643 0 0 0
9 1 0.386463 0.38303 0.420644 0 0 0
10 1 0.384791 0.399485 0.432277 0 0 0
11 1 0.382846 0.421288 0.433091 0 0 0
15 1 0.394531 0.447105 0.362289 0 0 0
16 1 0.401346 0.442558 0.344138 0 0 0
98 1 0.39708 0.534418 0.395211 0 0 0
99 1 0.401225 0.517935 0.403336 0 0 0
100 1 0.413461 0.500157 0.409415 0 0 0
101 1 0.429079 0.492674 0.418238 0 0 0
109 1 0.545188 0.574143 0.448369 0 0 0
17 1 0.412698 0.441741 0.325594 0 0 0
18 1 0.424873 0.445872 0.311844 0 0 0
20 1 0.466372 0.460857 0.307207 0 0 0
76 1 0.345099 0.745433 0.440755 0 0 0
77 1 0.327646 0.751402 0.438877 0 0 0
78 1 0.308279 0.75821 0.433626 0 0 0
79 1 0.290299 0.766928 0.423706 0 0 0
80 1 0.279629 0.764658 0.406229 0 0 0
89 1 0.402035 0.709794 0.330052 0 0 0
90 1 0.402606 0.690696 0.338894 0 0 0
91 1 0.39392 0.668385 0.338533 0 0 0
92 1 0.389639 0.649827 0.340486 0 0 0
93 1 0.394731 0.631326 0.344859 0 0 0
21 1 0.482267 0.473426 0.312454 0 0 0
22 1 0.495826 0.482644 0.32912 0 0 0
23 1 0.501637 0.483418 0.347315 0 0 0
81 1 0.278095 0.753206 0.384053 0 0 0
82 1 0.282622 0.745496 0.365338 0 0 0
83 1 0.293574 0.737786 0.349138 0 0 0
86 1 0.352902 0.738219 0.320703 0 0 0
87 1 0.372805 0.731941 0.31831 0 0 0
4 1 0.34677 0.358902 0.325393 0 0 0
5 1 0.352355 0.359842 0.345655 0 0 0
39 1 0.466307 0.526217 0.609945 0 0 0
40 1 0.470987 0.544675 0.603938 0 0 0
106 1 0.520874 0.520681 0.436447 0 0 0
107 1 0.531945 0.539135 0.436943 0 0 0
108 1 0.542377 0.555462 0.442137 0 0 0
30 1 0.431357 0.526126 0.464471 0 0 0
33 1 0.405524 0.508843 0.519594 0 0 0
36 1 0.421935 0.493604 0.580758 0 0 0
38 1 0.453223 0.510807 0.609572 0 0 0
41 1 0.480103 0.560669 0.595003 0 0 0
42 1 0.488346 0.577018 0.586131 0 0 0
43 1 0.485367 0.590144 0.57031 0 0 0
44 1 0.478911 0.60382 0.55596 0 0 0
45 1 0.470734 0.614118 0.53875 0 0 0
47 1 0.432784 0.602473 0.524032 0 0 0
48 1 0.413332 0.591857 0.5216 0 0 0
102 1 0.449076 0.485513 0.432181 0 0 0
103 1 0.470596 0.484806 0.436377 0 0 0
104 1 0.493241 0.490287 0.436455 0 0 0
105 1 0.510268 0.499531 0.438471 0 0 0
110 1 0.543805 0.591853 0.458324 0 0 0
111 1 0.547158 0.608203 0.470806 0 0 0
19 1 0.447575 0.454084 0.30504 0 0 0
26 1 0.485369 0.503432 0.403056 0 0 0
28 1 0.464357 0.518011 0.436999 0 0 0
29 1 0.445302 0.524724 0.448231 0 0 0
31 1 0.417527 0.523887 0.479984 0 0 0
32 1 0.411006 0.516573 0.498322 0 0 0
72 1 0.417371 0.70733 0.457224 0 0 0
73 1 0.39827 0.717729 0.45274 0 0 0
74 1 0.380559 0.725164 0.451261 0 0 0
75 1 0.361767 0.73357 0.445138 0 0 0
94 1 0.395699 0.609545 0.352755 0 0 0
95 1 0.395806 0.590396 0.362497 0 0 0
96 1 0.394834 0.569461 0.372135 0 0 0
97 1 0.39615 0.551618 0.385893 0 0 0
24 1 0.501677 0.49034 0.367785 0 0 0
25 1 0.496039 0.495147 0.388088 0 0 0
27 1 0.473462 0.511255 0.418705 0 0 0
88 1 0.392779 0.725433 0.320423 0 0 0
34 1 0.40343 0.506642 0.539817 0 0 0
146 1 0.68852 0.596582 0.680153 0 0 0
35 1 0.410502 0.502127 0.560656 0 0 0
37 1 0.43806 0.498534 0.599277 0 0 0
46 1 0.4538 0.610275 0.527968 0 0 0
49 1 0.402119 0.578163 0.528275 0 0 0
61 1 0.496358 0.629553 0.6237 0 0 0
65 1 0.507003 0.669255 0.55197 0 0 0
66 1 0.504319 0.680121 0.536806 0 0 0
67 1 0.493708 0.691212 0.523126 0 0 0
68 1 0.478476 0.695539 0.506533 0 0 0
112 1 0.545839 0.622218 0.483986 0 0 0
113 1 0.547155 0.628409 0.505536 0 0 0
114 1 0.543653 0.624874 0.528423 0 0 0
115 1 0.547619 0.608189 0.541295 0 0 0
116 1 0.552264 0.589786 0.545659 0 0 0
137 1 0.540668 0.654803 0.652959 0 0 0
143 1 0.626443 0.592146 0.694076 0 0 0
144 1 0.644224 0.587662 0.681843 0 0 0
145 1 0.666537 0.588923 0.676459 0 0 0
147 1 0.707886 0.607756 0.684819 0 0 0
148 1 0.714966 0.625122 0.695078 0 0 0
50 1 0.393389 0.567257 0.541397 0 0 0
51 1 0.386799 0.557256 0.556719 0 0 0
52 1 0.381858 0.545354 0.575058 0 0 0
58 1 0.462807 0.57661 0.638989 0 0 0
59 1 0.477096 0.590131 0.634441 0 0 0
60 1 0.489338 0.611056 0.630847 0 0 0
62 1 0.506456 0.642366 0.61098 0 0 0
63 1 0.511785 0.655583 0.590966 0 0 0
64 1 0.510617 0.658425 0.569233 0 0 0
69 1 0.46676 0.705191 0.492132 0 0 0
70 1 0.4528 0.707315 0.477836 0 0 0
71 1 0.436719 0.705274 0.46504 0 0 0
120 1 0.593629 0.514525 0.540219 0 0 0
121 1 0.616363 0.508825 0.534438 0 0 0
124 1 0.673696 0.530181 0.545428 0 0 0
130 1 0.653993 0.635041 0.584504 0 0 0
136 1 0.548721 0.664279 0.633967 0 0 0
57 1 0.448514 0.562613 0.640833 0 0 0
125 1 0.68605 0.54816 0.547526 0 0 0
126 1 0.688744 0.567744 0.555036 0 0 0
186 1 0.86023 0.329919 0.826383 0 0 0
117 1 0.554057 0.569853 0.547446 0 0 0
118 1 0.560291 0.545575 0.54431 0 0 0
119 1 0.574328 0.52649 0.542806 0 0 0
138 1 0.540602 0.640023 0.669694 0 0 0
139 1 0.551496 0.624112 0.681761 0 0 0
140 1 0.565305 0.611633 0.692715 0 0 0
142 1 0.603303 0.597871 0.698721 0 0 0
149 1 0.7162 0.644046 0.703372 0 0 0
153 1 0.684243 0.679639 0.748126 0 0 0
154 1 0.68463 0.656358 0.751265 0 0 0
155 1 0.687428 0.635587 0.752911 0 0 0
156 1 0.699045 0.619968 0.755343 0 0 0
189 1 0.810401 0.293987 0.84006 0 0 0
193 1 0.746106 0.248727 0.824058 0 0 0
199 1 0.711092 0.216447 0.710128 0 0 0
200 1 0.711368 0.211603 0.685777 0 0 0
53 1 0.382229 0.542592 0.596298 0 0 0
54 1 0.392773 0.544082 0.61614 0 0 0
55 1 0.408486 0.542099 0.62694 0 0 0
56 1 0.430525 0.549697 0.63426 0 0 0
122 1 0.639695 0.508671 0.536342 0 0 0
123 1 0.659789 0.514831 0.540668 0 0 0
131 1 0.639884 0.651092 0.58431 0 0 0
132 1 0.616248 0.660076 0.584504 0 0 0
133 1 0.594744 0.667339 0.591838 0 0 0
135 1 0.562282 0.664838 0.614448 0 0 0
141 1 0.585194 0.605703 0.702739 0 0 0
157 1 0.719221 0.612893 0.751148 0 0 0
158 1 0.738141 0.602203 0.746822 0 0 0
159 1 0.762003 0.596327 0.747652 0 0 0
160 1 0.782233 0.595981 0.758483 0 0 0
161 1 0.803795 0.598357 0.763818 0 0 0
162 1 0.820207 0.60566 0.7752 0 0 0
163 1 0.829825 0.616882 0.790747 0 0 0
197 1 0.703669 0.236165 0.747657 0 0 0
127 1 0.69314 0.585416 0.567369 0 0 0
128 1 0.687838 0.604246 0.573083 0 0 0
129 1 0.671216 0.620732 0.581253 0 0 0
134 1 0.577774 0.667894 0.601757 0 0 0
187 1 0.842979 0.31844 0.832934 0 0 0
150 1 0.713238 0.666623 0.710219 0 0 0
152 1 0.693589 0.690855 0.730079 0 0 0
167 1 0.818773 0.633286 0.866858 0 0 0
168 1 0.814843 0.618427 0.881347 0 0 0
169 1 0.806032 0.598431 0.889771 0 0 0
178 1 0.858393 0.470524 0.814587 0 0 0
180 1 0.881074 0.439657 0.796647 0 0 0
181 1 0.884337 0.417699 0.790999 0 0 0
182 1 0.892888 0.39704 0.795829 0 0 0
183 1 0.891077 0.377215 0.800583 0 0 0
184 1 0.883494 0.356275 0.806715 0 0 0
185 1 0.869953 0.342727 0.817829 0 0 0
188 1 0.827343 0.305566 0.834734 0 0 0
190 1 0.797185 0.279352 0.83695 0 0 0
191 1 0.779305 0.26687 0.837477 0 0 0
192 1 0.7618 0.254029 0.835662 0 0 0
194 1 0.730224 0.244191 0.806576 0 0 0
195 1 0.715649 0.242347 0.789079 0 0 0
196 1 0.705005 0.241048 0.769648 0 0 0
198 1 0.707151 0.23043 0.72716 0 0 0
151 1 0.709858 0.686682 0.715739 0 0 0
164 1 0.83111 0.625103 0.811269 0 0 0
165 1 0.829444 0.636272 0.827853 0 0 0
166 1 0.828205 0.641474 0.848761 0 0 0
171 1 0.794471 0.556404 0.897437 0 0 0
175 1 0.826194 0.493521 0.868368 0 0 0
179 1 0.871277 0.456309 0.804273 0 0 0
172 1 0.797764 0.537471 0.901691 0 0 0
173 1 0.81028 0.519988 0.898574 0 0 0
174 1 0.819008 0.505584 0.884611 0 0 0
176 1 0.832377 0.485421 0.846729 0 0 0
177 1 0.845964 0.479458 0.831327 0 0 0
170 1 0.797162 0.57665 0.895777 0 0 0
ITEM: TIMESTEP
2000
ITEM: NUMBER OF ATOMS
200
ITEM: BOX BOUNDS pp pp pp
-2.5000000000000000e+01 2.5000000000000000e+01
-2.5000000000000000e+01 2.5000000000000000e+01
-2.5000000000000000e+01 2.5000000000000000e+01
ITEM: ATOMS id type xs ys zs ix iy iz
1 1 0.277684 0.370582 0.309109 0 0 0
2 1 0.293356 0.37746 0.320508 0 0 0
20 1 0.51145 0.501219 0.33116 0 0 0
4 1 0.318821 0.370808 0.353182 0 0 0
3 1 0.308865 0.379785 0.335121 0 0 0
17 1 0.491667 0.437505 0.337506 0 0 0
18 1 0.497527 0.458593 0.329281 0 0 0
19 1 0.504677 0.481013 0.327158 0 0 0
21 1 0.519001 0.523105 0.330076 0 0 0
22 1 0.522178 0.538905 0.34039 0 0 0
91 1 0.387115 0.651386 0.362825 0 0 0
90 1 0.377108 0.672214 0.366114 0 0 0
89 1 0.364837 0.690646 0.367999 0 0 0
85 1 0.321269 0.758775 0.364398 0 0 0
84 1 0.305998 0.774601 0.37279 0 0 0
86 1 0.329165 0.739809 0.358145 0 0 0
87 1 0.339827 0.723595 0.358036 0 0 0
88 1 0.354654 0.707498 0.360783 0 0 0
5 1 0.333674 0.375509 0.366817 0 0 0
6 1 0.346437 0.37951 0.384525 0 0 0
16 1 0.484835 0.420751 0.348584 0 0 0
23 1 0.519663 0.553173 0.352556 0 0 0
24 1 0.515525 0.564471 0.370539 0 0 0
93 1 0.405228 0.613903 0.363765 0 0 0
94 1 0.409973 0.59532 0.368097 0 0 0
92 1 0.399592 0.633931 0.363364 0 0 0
82 1 0.285498 0.775043 0.41114 0 0 0
83 1 0.290353 0.777976 0.388439 0 0 0
7 1 0.361964 0.379424 0.402654 0 0 0
14 1 0.468765 0.39484 0.378246 0 0 0
15 1 0.477294 0.404469 0.360858 0 0 0
99 1 0.379516 0.501275 0.405993 0 0 0
25 1 0.507506 0.56938 0.390386 0 0 0
98 1 0.379502 0.523223 0.395318 0 0 0
96 1 0.401424 0.553335 0.37694 0 0 0
97 1 0.389157 0.537805 0.383821 0 0 0
95 1 0.407034 0.575298 0.367934 0 0 0
81 1 0.289896 0.761474 0.429483 0 0 0
8 1 0.375181 0.374503 0.419526 0 0 0
13 1 0.459887 0.386558 0.398337 0 0 0
100 1 0.390033 0.483964 0.420081 0 0 0
101 1 0.404599 0.474989 0.433572 0 0 0
26 1 0.497576 0.570219 0.411934 0 0 0
27 1 0.491985 0.568128 0.436 0 0 0
79 1 0.307956 0.73998 0.462507 0 0 0
80 1 0.297252 0.746672 0.445242 0 0 0
9 1 0.391439 0.375483 0.433123 0 0 0
10 1 0.412155 0.375984 0.434242 0 0 0
11 1 0.431404 0.376821 0.424087 0 0 0
12 1 0.448904 0.379618 0.415761 0 0 0
102 1 0.424789 0.47988 0.44373 0 0 0
103 1 0.445834 0.483638 0.445976 0 0 0
104 1 0.465272 0.491333 0.437799 0 0 0
105 1 0.481666 0.506142 0.429976 0 0 0
29 1 0.464049 0.573557 0.470991 0 0 0
28 1 0.481516 0.570663 0.456063 0 0 0
106 1 0.49396 0.523483 0.42581 0 0 0
107 1 0.507516 0.539685 0.429922 0 0 0
108 1 0.517333 0.555235 0.435741 0 0 0
73 1 0.408783 0.688827 0.513665 0 0 0
74 1 0.38777 0.696719 0.515647 0 0 0
78 1 0.316919 0.725775 0.478258 0 0 0
77 1 0.330389 0.713829 0.492775 0 0 0
76 1 0.346698 0.701731 0.501415 0 0 0
75 1 0.36545 0.700342 0.51434 0 0 0
30 1 0.446422 0.575805 0.483079 0 0 0
109 1 0.526063 0.571759 0.445039 0 0 0
110 1 0.534427 0.588344 0.461663 0 0 0
111 1 0.53885 0.5986 0.478962 0 0 0
72 1 0.426077 0.682422 0.503773 0 0 0
70 1 0.465201 0.6763 0.500588 0 0 0
71 1 0.443313 0.674245 0.495688 0 0 0
31 1 0.428427 0.57169 0.497092 0 0 0
32 1 0.417137 0.565009 0.519644 0 0 0
112 1 0.540718 0.606 0.498569 0 0 0
113 1 0.547449 0.599793 0.515756 0 0 0
68 1 0.50824 0.68205 0.511641 0 0 0
67 1 0.523425 0.683125 0.528136 0 0 0
69 1 0.487021 0.679909 0.50523 0 0 0
33 1 0.412615 0.558374 0.540323 0 0 0
34 1 0.416668 0.551958 0.561745 0 0 0
122 1 0.68643 0.519405 0.58842 0 0 0
119 1 0.625798 0.509929 0.557785 0 0 0
120 1 0.648675 0.511797 0.568218 0 0 0
121 1 0.667938 0.511095 0.57678 0 0 0
123 1 0.701862 0.535361 0.598884 0 0 0
124 1 0.711528 0.555239 0.600833 0 0 0
50 1 0.401805 0.640822 0.568455 0 0 0
48 1 0.436839 0.64786 0.542987 0 0 0
49 1 0.418418 0.647783 0.552384 0 0 0
47 1 0.455057 0.643241 0.535721 0 0 0
46 1 0.479389 0.642916 0.537964 0 0 0
45 1 0.501024 0.641793 0.546272 0 0 0
115 1 0.57282 0.566601 0.528555 0 0 0
114 1 0.558959 0.582418 0.526705 0 0 0
66 1 0.534775 0.68305 0.547748 0 0 0
35 1 0.41629 0.548606 0.583088 0 0 0
125 1 0.722046 0.575848 0.603341 0 0 0
51 1 0.394519 0.640144 0.588279 0 0 0
52 1 0.386454 0.632959 0.608083 0 0 0
117 1 0.596002 0.533328 0.543496 0 0 0
118 1 0.609731 0.517146 0.548412 0 0 0
126 1 0.722643 0.599068 0.598611 0 0 0
43 1 0.517494 0.61935 0.582254 0 0 0
116 1 0.583911 0.550446 0.539319 0 0 0
127 1 0.715492 0.622091 0.597994 0 0 0
44 1 0.513808 0.633479 0.561757 0 0 0
128 1 0.710816 0.642654 0.602909 0 0 0
129 1 0.697383 0.66225 0.602359 0 0 0
64 1 0.527925 0.667362 0.580966 0 0 0
130 1 0.686543 0.680283 0.605272 0 0 0
131 1 0.66617 0.692472 0.611801 0 0 0
65 1 0.536289 0.67609 0.567113 0 0 0
36 1 0.424721 0.547799 0.605708 0 0 0
37 1 0.43739 0.554341 0.623589 0 0 0
53 1 0.385163 0.623464 0.627999 0 0 0
41 1 0.507096 0.590233 0.616443 0 0 0
42 1 0.51488 0.603819 0.599513 0 0 0
63 1 0.525535 0.65658 0.599342 0 0 0
133 1 0.624483 0.685142 0.629085 0 0 0
132 1 0.644975 0.691349 0.621268 0 0 0
134 1 0.60617 0.672821 0.642029 0 0 0
38 1 0.455791 0.564695 0.630361 0 0 0
39 1 0.476896 0.57391 0.632927 0 0 0
40 1 0.49587 0.580263 0.630664 0 0 0
54 1 0.395958 0.614389 0.645087 0 0 0
55 1 0.410725 0.601035 0.654745 0 0 0
56 1 0.427511 0.589689 0.663298 0 0 0
59 1 0.489671 0.607506 0.662414 0 0 0
61 1 0.512199 0.636578 0.638805 0 0 0
60 1 0.502891 0.619281 0.654867 0 0 0
62 1 0.521426 0.648036 0.621542 0 0 0
136 1 0.583686 0.642493 0.662671 0 0 0
135 1 0.59165 0.662206 0.65356 0 0 0
57 1 0.448094 0.589701 0.673882 0 0 0
58 1 0.47141 0.595244 0.67227 0 0 0
137 1 0.585296 0.624724 0.677477 0 0 0
138 1 0.594215 0.610897 0.693982 0 0 0
200 1 0.695829 0.173308 0.683534 0 0 0
143 1 0.684485 0.608109 0.724103 0 0 0
142 1 0.669004 0.594248 0.726087 0 0 0
144 1 0.698092 0.622924 0.712293 0 0 0
146 1 0.716423 0.65386 0.684134 0 0 0
145 1 0.712449 0.637002 0.701592 0 0 0
139 1 0.608621 0.597253 0.704817 0 0 0
140 1 0.626943 0.59022 0.711556 0 0 0
147 1 0.710828 0.667055 0.670855 0 0 0
199 1 0.697971 0.188908 0.695586 0 0 0
141 1 0.64834 0.586671 0.721096 0 0 0
148 1 0.697378 0.684633 0.667033 0 0 0
149 1 0.685327 0.699043 0.679419 0 0 0
150 1 0.672354 0.70608 0.694728 0 0 0
151 1 0.659896 0.697403 0.713756 0 0 0
197 1 0.709532 0.212858 0.731089 0 0 0
198 1 0.70397 0.201829 0.714869 0 0 0
158 1 0.736753 0.609949 0.780795 0 0 0
156 1 0.696171 0.630651 0.778325 0 0 0
157 1 0.715009 0.617382 0.781412 0 0 0
154 1 0.664495 0.658601 0.765281 0 0 0
155 1 0.675632 0.640594 0.776031 0 0 0
153 1 0.653304 0.676475 0.750871 0 0 0
152 1 0.651482 0.690196 0.732662 0 0 0
196 1 0.716371 0.225919 0.748877 0 0 0
195 1 0.727074 0.232797 0.768847 0 0 0
159 1 0.758915 0.600918 0.77566 0 0 0
160 1 0.781887 0.600078 0.779433 0 0 0
161 1 0.80543 0.601637 0.784393 0 0 0
162 1 0.825575 0.598834 0.790753 0 0 0
163 1 0.843201 0.596719 0.801879 0 0 0
194 1 0.74356 0.240096 0.780347 0 0 0
193 1 0.762721 0.249695 0.785986 0 0 0
185 1 0.900205 0.333951 0.779349 0 0 0
184 1 0.901566 0.353987 0.784809 0 0 0
182 1 0.90133 0.393444 0.804103 0 0 0
183 1 0.903929 0.376415 0.791764 0 0 0
181 1 0.897427 0.410963 0.814446 0 0 0
180 1 0.886974 0.421288 0.822408 0 0 0
179 1 0.871658 0.438949 0.828532 0 0 0
178 1 0.857701 0.456253 0.835619 0 0 0
164 1 0.858972 0.591326 0.816928 0 0 0
192 1 0.786434 0.254641 0.785918 0 0 0
191 1 0.809127 0.260887 0.781843 0 0 0
190 1 0.831174 0.262048 0.77319 0 0 0
189 1 0.852564 0.268439 0.767173 0 0 0
187 1 0.88807 0.293439 0.769938 0 0 0
188 1 0.873191 0.277885 0.765811 0 0 0
186 1 0.897295 0.312756 0.772665 0 0 0
177 1 0.842326 0.466988 0.848966 0 0 0
166 1 0.878842 0.585618 0.85572 0 0 0
165 1 0.870155 0.589752 0.834132 0 0 0
176 1 0.829913 0.475535 0.869828 0 0 0
175 1 0.829417 0.480363 0.892387 0 0 0
167 1 0.883774 0.584341 0.877423 0 0 0
174 1 0.837097 0.490196 0.908448 0 0 0
172 1 0.853908 0.520719 0.934283 0 0 0
173 1 0.847229 0.502893 0.923774 0 0 0
171 1 0.866937 0.539246 0.939002 0 0 0
169 1 0.87821 0.573523 0.917183 0 0 0
170 1 0.874266 0.558677 0.932859 0 0 0
168 1 0.882286 0.581739 0.899149 0 0 0
ITEM: TIMESTEP
3000
ITEM: NUMBER OF ATOMS
200
ITEM: BOX BOUNDS pp pp pp
-2.5000000000000000e+01 2.5000000000000000e+01
-2.5000000000000000e+01 2.5000000000000000e+01
-2.5000000000000000e+01 2.5000000000000000e+01
ITEM: ATOMS id type xs ys zs ix iy iz
1 1 0.260594 0.356016 0.268798 0 0 0
2 1 0.277702 0.363325 0.279987 0 0 0
3 1 0.294716 0.373118 0.296171 0 0 0
18 1 0.525289 0.451717 0.330606 0 0 0
19 1 0.528741 0.469918 0.33092 0 0 0
20 1 0.534491 0.489606 0.334549 0 0 0
21 1 0.531744 0.505709 0.347679 0 0 0
4 1 0.306201 0.386578 0.310286 0 0 0
15 1 0.481898 0.412291 0.358614 0 0 0
16 1 0.498121 0.421886 0.348917 0 0 0
17 1 0.514583 0.437787 0.341097 0 0 0
22 1 0.531413 0.526073 0.358948 0 0 0
23 1 0.529026 0.540829 0.376338 0 0 0
93 1 0.414254 0.628511 0.342398 0 0 0
92 1 0.412139 0.648058 0.348302 0 0 0
91 1 0.405346 0.666578 0.350236 0 0 0
87 1 0.3466 0.724505 0.34837 0 0 0
88 1 0.364465 0.710755 0.346594 0 0 0
86 1 0.327641 0.735909 0.357774 0 0 0
85 1 0.310646 0.745196 0.361161 0 0 0
5 1 0.309464 0.397533 0.328255 0 0 0
6 1 0.318995 0.407209 0.34595 0 0 0
14 1 0.465621 0.401525 0.367519 0 0 0
98 1 0.397064 0.523355 0.343283 0 0 0
97 1 0.40078 0.543531 0.341572 0 0 0
96 1 0.39855 0.565274 0.339987 0 0 0
25 1 0.496934 0.559413 0.400158 0 0 0
24 1 0.514894 0.553454 0.388125 0 0 0
94 1 0.409529 0.607598 0.336464 0 0 0
95 1 0.403401 0.585651 0.336961 0 0 0
90 1 0.399242 0.686072 0.350999 0 0 0
89 1 0.382764 0.698126 0.350942 0 0 0
83 1 0.274273 0.749689 0.386177 0 0 0
84 1 0.292177 0.750976 0.37054 0 0 0
7 1 0.332495 0.405012 0.368174 0 0 0
8 1 0.345821 0.397062 0.382554 0 0 0
12 1 0.429859 0.392492 0.391723 0 0 0
13 1 0.448633 0.395307 0.380998 0 0 0
100 1 0.401289 0.493643 0.36594 0 0 0
99 1 0.394617 0.503078 0.349355 0 0 0
26 1 0.484319 0.567367 0.418159 0 0 0
82 1 0.27295 0.746551 0.411095 0 0 0
9 1 0.362778 0.395803 0.393009 0 0 0
10 1 0.38587 0.388873 0.397336 0 0 0
11 1 0.408181 0.385512 0.395474 0 0 0
101 1 0.4132 0.491415 0.385792 0 0 0
102 1 0.420823 0.486177 0.404119 0 0 0
103 1 0.43151 0.485516 0.42577 0 0 0
104 1 0.444526 0.49374 0.441822 0 0 0
105 1 0.463822 0.502004 0.4519 0 0 0
106 1 0.482448 0.502787 0.465046 0 0 0
107 1 0.503839 0.504811 0.471216 0 0 0
27 1 0.476408 0.574523 0.438318 0 0 0
108 1 0.52762 0.506654 0.477139 0 0 0
109 1 0.549113 0.515253 0.476153 0 0 0
80 1 0.292854 0.73776 0.451282 0 0 0
81 1 0.279135 0.740504 0.432013 0 0 0
29 1 0.447109 0.560467 0.474134 0 0 0
28 1 0.462095 0.571795 0.458614 0 0 0
30 1 0.435866 0.55356 0.490681 0 0 0
110 1 0.56956 0.523436 0.473048 0 0 0
111 1 0.589552 0.52926 0.471485 0 0 0
78 1 0.332706 0.735865 0.4635 0 0 0
79 1 0.310929 0.734682 0.459307 0 0 0
31 1 0.422502 0.547523 0.508519 0 0 0
112 1 0.610353 0.52806 0.477396 0 0 0
74 1 0.41278 0.721912 0.452076 0 0 0
73 1 0.434373 0.710426 0.45569 0 0 0
72 1 0.450902 0.702615 0.466424 0 0 0
71 1 0.470382 0.695469 0.473467 0 0 0
70 1 0.48508 0.691346 0.48734 0 0 0
68 1 0.515056 0.681793 0.521096 0 0 0
69 1 0.501889 0.685673 0.50488 0 0 0
77 1 0.354928 0.73589 0.46554 0 0 0
76 1 0.375042 0.733829 0.461764 0 0 0
75 1 0.391068 0.726696 0.452902 0 0 0
117 1 0.674845 0.516179 0.562014 0 0 0
32 1 0.408107 0.546799 0.523008 0 0 0
33 1 0.397203 0.550658 0.540502 0 0 0
115 1 0.658377 0.535604 0.522394 0 0 0
116 1 0.665251 0.523807 0.54186 0 0 0
113 1 0.629529 0.530327 0.49207 0 0 0
114 1 0.646073 0.535864 0.503724 0 0 0
48 1 0.435873 0.615784 0.552889 0 0 0
47 1 0.46137 0.62076 0.553982 0 0 0
46 1 0.477399 0.624639 0.566804 0 0 0
45 1 0.48294 0.629106 0.58456 0 0 0
67 1 0.526374 0.671941 0.539114 0 0 0
119 1 0.705792 0.511322 0.595198 0 0 0
120 1 0.726088 0.519972 0.598795 0 0 0
118 1 0.688212 0.513198 0.578403 0 0 0
34 1 0.39165 0.556662 0.560526 0 0 0
44 1 0.492626 0.632552 0.607451 0 0 0
50 1 0.393525 0.623209 0.560667 0 0 0
49 1 0.415823 0.6182 0.556346 0 0 0
66 1 0.529797 0.663737 0.559412 0 0 0
65 1 0.531022 0.662796 0.583122 0 0 0
121 1 0.74435 0.531749 0.601976 0 0 0
122 1 0.761647 0.542125 0.604608 0 0 0
123 1 0.770669 0.562482 0.607794 0 0 0
35 1 0.390427 0.556993 0.583162 0 0 0
36 1 0.39457 0.552844 0.603559 0 0 0
124 1 0.775483 0.583894 0.605059 0 0 0
42 1 0.483134 0.614258 0.648801 0 0 0
125 1 0.774796 0.601982 0.589368 0 0 0
126 1 0.766067 0.621645 0.581439 0 0 0
43 1 0.49176 0.627171 0.630328 0 0 0
127 1 0.757029 0.638008 0.572686 0 0 0
51 1 0.376606 0.6264 0.574553 0 0 0
64 1 0.524494 0.660613 0.602465 0 0 0
63 1 0.515981 0.655602 0.625266 0 0 0
128 1 0.744789 0.654682 0.566273 0 0 0
129 1 0.724615 0.663304 0.56334 0 0 0
130 1 0.703847 0.668677 0.56914 0 0 0
37 1 0.40772 0.548625 0.620579 0 0 0
38 1 0.424143 0.557076 0.638914 0 0 0
39 1 0.436906 0.572561 0.653726 0 0 0
41 1 0.466154 0.603297 0.657202 0 0 0
40 1 0.451301 0.588308 0.661848 0 0 0
52 1 0.358392 0.631178 0.587468 0 0 0
53 1 0.355811 0.637549 0.60719 0 0 0
62 1 0.505899 0.649683 0.640385 0 0 0
133 1 0.658235 0.69758 0.611514 0 0 0
132 1 0.669981 0.694636 0.590451 0 0 0
131 1 0.684314 0.679464 0.578057 0 0 0
55 1 0.375139 0.635264 0.646444 0 0 0
56 1 0.394813 0.633433 0.66043 0 0 0
54 1 0.359914 0.635964 0.627807 0 0 0
59 1 0.452111 0.645316 0.672656 0 0 0
61 1 0.487909 0.647226 0.651585 0 0 0
60 1 0.469232 0.649617 0.662065 0 0 0
136 1 0.629144 0.672418 0.669051 0 0 0
135 1 0.640609 0.683807 0.650714 0 0 0
134 1 0.649131 0.692391 0.632834 0 0 0
200 1 0.609642 0.163042 0.692957 0 0 0
199 1 0.629598 0.17525 0.700504 0 0 0
57 1 0.412925 0.633868 0.674435 0 0 0
58 1 0.433754 0.640437 0.68225 0 0 0
137 1 0.624932 0.656352 0.679992 0 0 0
138 1 0.629446 0.641668 0.695872 0 0 0
146 1 0.749829 0.672365 0.694008 0 0 0
147 1 0.746389 0.689288 0.681313 0 0 0
148 1 0.736221 0.701249 0.670072 0 0 0
149 1 0.724592 0.718513 0.668113 0 0 0
150 1 0.70782 0.728095 0.674826 0 0 0
198 1 0.647876 0.185763 0.702625 0 0 0
139 1 0.641053 0.6299 0.709106 0 0 0
140 1 0.658471 0.617679 0.716263 0 0 0
141 1 0.678421 0.612854 0.720921 0 0 0
142 1 0.697377 0.620343 0.721016 0 0 0
143 1 0.714347 0.633868 0.723026 0 0 0
144 1 0.730324 0.642473 0.716136 0 0 0
145 1 0.743893 0.658125 0.706062 0 0 0
151 1 0.69341 0.726161 0.69397 0 0 0
197 1 0.667472 0.19865 0.708853 0 0 0
196 1 0.686802 0.208002 0.717999 0 0 0
153 1 0.679301 0.712889 0.736277 0 0 0
152 1 0.684478 0.722199 0.717087 0 0 0
195 1 0.705175 0.219579 0.721432 0 0 0
194 1 0.723072 0.234606 0.728434 0 0 0
193 1 0.743239 0.245009 0.736923 0 0 0