LAMMPS (29 Oct 2020)
###################### polyelectrolyte complexation ######################
clear

#Initialization
#------------------------------------
units				lj
dimension			3
atom_style			full
boundary			p p p

#Atom Definition
#-------------------------------------
read_data			data.complexation
Reading data file ...
  orthogonal box = (-80.000000 -80.000000 -80.000000) to (80.000000 80.000000 80.000000)
  1 by 1 by 1 MPI processor grid
  reading atoms ...
  120 atoms
  scanning bonds ...
  1 = max bonds/atom
  reading bonds ...
  119 bonds
Finding 1-2 1-3 1-4 neighbors ...
  special bond factors lj:    0.0      0.0      0.0     
  special bond factors coul:  0.0      0.0      0.0     
     2 = max # of 1-2 neighbors
     2 = max # of 1-3 neighbors
     4 = max # of 1-4 neighbors
     6 = max # of special neighbors
  special bonds CPU = 0.000 seconds
  read_data CPU = 0.002 seconds

#Force definition
#----------------------------------------------
#Bond definition
bond_style			harmonic
bond_coeff			1 5000 1
#Pair definition
special_bonds	lj 0 1 1
Finding 1-2 1-3 1-4 neighbors ...
  special bond factors lj:    0.0      1.0      1.0     
  special bond factors coul:  0.0      0.0      0.0     
     2 = max # of 1-2 neighbors
     2 = max # of 1-3 neighbors
     4 = max # of 1-4 neighbors
     6 = max # of special neighbors
  special bonds CPU = 0.000 seconds
pair_style		 lj/cut 1.12
pair_modify 		 shift yes
pair_coeff	1 1 1 1 1.12

#Timestep etc
#--------------------------------------------
timestep		1e-05
run_style		verlet
velocity		all	create	1	10

#Fix
#---------------------------------------
group polymers type 1
120 atoms in group polymers
fix 1 all nve
fix 2 all langevin 1	1	10	10
fix 3 polymers recenter INIT INIT INIT units box

#Dump
#------------------------------------------------
compute  1 all gyration
variable  myRg2 equal c_1
variable  i equal step
fix  mythermofile all print 5000 "$i ${myRg2}" file radius_of_gyration.dat screen no

thermo_style		 custom step temp press pe evdwl ecoul ebond ke etotal enthalpy
thermo 	5000
dump	3 all custom 5000 dump.lammpstrj id mol type xu yu zu
run		20000000
Neighbor list info ...
  update every 1 steps, delay 10 steps, check yes
  max neighbors/atom: 2000, page size: 100000
  master list distance cutoff = 1.42
  ghost atom cutoff = 1.42
  binsize = 0.71, bins = 226 226 226
  1 neighbor lists, perpetual/occasional/extra = 1 0 0
  (1) pair lj/cut, perpetual
      attributes: half, newton on
      pair build: half/bin/newton
      stencil: half/bin/3d/newton
      bin: standard
WARNING: Communication cutoff 1.4200000000000002 is shorter than a bond length based estimate of 1.8. This may lead to errors. (../comm.cpp:667)
Per MPI rank memory allocation (min/avg/max) = 54.72 | 54.72 | 54.72 Mbytes
Step Temp Press PotEng E_vdwl E_coul E_bond KinEng TotEng Enthalpy 
       0            1 2.9052734e-05            0            0            0            0       1.4875       1.4875    2.4791667 
    5000   0.80311788 -0.00048458236   0.27517164            0            0   0.27517164    1.1946378    1.4698095   -15.070602 
   10000   0.43062377 -0.001047576   0.85562956            0            0   0.85562956   0.64055286    1.4961824   -34.261078 
   15000     0.703249 -0.00060069688   0.46872708            0            0   0.46872708    1.0460829      1.51481   -18.988977 
   20000    0.6801923 -0.00040231165   0.48882066            0            0   0.48882066    1.0117861    1.5006067   -12.231631 
   25000   0.52377112 -0.00082135529    0.7172989            0            0    0.7172989   0.77910954    1.4964084   -26.539185 
   30000      0.66802 -0.00066074765   0.49336463            0            0   0.49336463   0.99367975    1.4870444   -21.066475 
   35000   0.76200371 -0.00038936373   0.36813971            0            0   0.36813971    1.1334805    1.5016202   -11.788662 
   40000   0.59519262 -0.00051504467   0.61045929            0            0   0.61045929   0.88534902    1.4958083   -16.084383 
   45000   0.65294671 -0.00059720397   0.56809946            0            0   0.56809946   0.97125824    1.5393577   -18.845205 
   50000   0.74646078 -0.00040552575    0.4492728            0            0    0.4492728    1.1103604    1.5596332   -12.282313 
   55000   0.70880958 -0.00038929187   0.49960548            0            0   0.49960548    1.0543543    1.5539597   -11.733869 
   60000   0.73652361 -0.0003759627   0.45851404            0            0   0.45851404    1.0955789    1.5540929   -11.278767 
   65000   0.80008439 -0.00017709144   0.37119701            0            0   0.37119701    1.1901255    1.5613225   -4.4833988 
   70000    0.7945847 -0.00032833621   0.39737942            0            0   0.39737942    1.1819447    1.5793242   -9.6278852 
   75000   0.78049906 -0.00026903356   0.39236944            0            0   0.39236944    1.1609924    1.5533618   -7.6296502 
   80000   0.81289295 -0.00019474342   0.33085552            0            0   0.33085552    1.2091783    1.5400338   -5.1072082 
   85000   0.84421007 -0.0001023977    0.2926427            0            0    0.2926427    1.2557625    1.5484052   -1.9467698 
   90000   0.84016039 -6.0127435e-05   0.29023689            0            0   0.29023689    1.2497386    1.5399755  -0.51237429 
   95000   0.79495883 -0.00024453983    0.3663296            0            0    0.3663296    1.1825013    1.5488309   -6.7981288 
  100000   0.78038538 -6.1774959e-05     0.356465            0            0     0.356465    1.1608233    1.5172883    -0.591297 
  105000   0.80450553 -0.00016151564   0.32103468            0            0   0.32103468     1.196702    1.5177367   -3.9953304 
  110000    0.8108612 3.945933e-05   0.32067992            0            0   0.32067992     1.206156     1.526836    2.8737144 
  115000   0.81637506 -0.00012477484   0.31930169            0            0   0.31930169    1.2143579    1.5336596   -2.7253217 
  120000   0.80170853 -8.4560305e-05   0.33843524            0            0   0.33843524    1.1925414    1.5309767   -1.3553484 
  125000   0.77620315 -1.0168593e-05   0.35743176            0            0   0.35743176    1.1546022     1.512034     1.164946 
  130000   0.80507767 1.0898531e-06   0.32059951            0            0   0.32059951     1.197553    1.5181526    1.5553529 
  135000   0.80094804 -6.8362692e-05   0.33835063            0            0   0.33835063    1.1914102    1.5297608  -0.80368571 
  140000   0.82074688 -8.5359066e-05    0.3008216            0            0    0.3008216     1.220861    1.5216826   -1.3919069 
  145000   0.80936048 -0.00011711976   0.32267487            0            0   0.32267487    1.2039237    1.5265986   -2.4710893 
  150000   0.82578353 0.00010866666   0.29468434            0            0   0.29468434     1.228353    1.5230373    5.2321927 
  155000   0.80364156 4.6020571e-06   0.33924931            0            0   0.33924931    1.1954168    1.5346661    1.6917497 
  160000   0.75794957 -0.00024929599   0.40214592            0            0   0.40214592      1.12745    1.5295959   -6.9797071 
  165000   0.81046552 9.902518e-05    0.3351246            0            0    0.3351246    1.2055675    1.5406921    4.9207515 
  170000   0.80486791 4.3976714e-05   0.35830576            0            0   0.35830576     1.197241    1.5555468    3.0566186 
  175000   0.83820255 -7.7891515e-05   0.33127817            0            0   0.33127817    1.2468263    1.5781045   -1.0805926 
  180000   0.84162824 -9.2509982e-05   0.32046357            0            0   0.32046357     1.251922    1.5723856   -1.5852885 
  185000   0.85150014 4.3782105e-05   0.31604061            0            0   0.31604061    1.2666065    1.5826471    3.0770763 
  190000   0.83566294 0.00011076106   0.31157185            0            0   0.31157185    1.2430486    1.5546205    5.3352648 
  195000   0.81563721 -0.00016228056   0.33186839            0            0   0.33186839    1.2132604    1.5451287   -3.9940476 
  200000   0.81790668 -1.3143207e-05   0.33101318            0            0   0.33101318    1.2166362    1.5476494    1.0990279 
  205000   0.81211219 0.00017613396   0.36291395            0            0   0.36291395    1.2080169    1.5709308    7.5829699 
  210000   0.81720267 -0.00012535648   0.36058074            0            0   0.36058074     1.215589    1.5761697   -2.7026648 
  215000   0.82781062 -8.8309298e-05   0.34425218            0            0   0.34425218    1.2313683    1.5756205   -1.4386702 
  220000   0.82842523 3.5121396e-05   0.32612464            0            0   0.32612464    1.2322825    1.5584072    2.7572175 
  225000   0.79869041 0.00018952847   0.37358516            0            0   0.37358516     1.188052    1.5616372    8.0308756 
  230000   0.79593521 -0.00034988436   0.39159179            0            0   0.39159179    1.1839536    1.5755454   -10.367174 
  235000   0.86644054 0.00014326337   0.30260907            0            0   0.30260907    1.2888303    1.5914394    6.4814956 
  240000   0.87420749 8.3711251e-05   0.30005279            0            0   0.30005279    1.3003836    1.6004364    4.4577805 
  245000    0.8505499 -0.00010691544   0.35686505            0            0   0.35686505     1.265193     1.622058   -2.0273222 
  250000   0.83567369 -8.347343e-05   0.36225898 0.00028397043            0   0.36197501    1.2430646    1.6053236   -1.2439028 
  255000   0.83755325 0.00018073532   0.36060136 0.00037399217            0   0.36022737    1.2458605    1.6064618    7.7755607 
  260000   0.85480902 -6.8569134e-05   0.34277002 0.0004106366            0   0.34235938    1.2715284    1.6142984  -0.72619467 
  265000   0.88703998 -9.6474939e-05    0.2843798 6.8562847e-05            0   0.28431123     1.319472    1.6038518   -1.6891595 
  270000   0.83489597 5.9080758e-05   0.33080945            0            0   0.33080945    1.2419078    1.5727172    3.5893404 
  275000   0.76720438 1.9261319e-05   0.41630094            0            0   0.41630094    1.1412165    1.5575175    2.2149705 
  280000   0.82104022 -7.2372793e-05   0.35428135            0            0   0.35428135    1.2212973    1.5755787  -0.89474599 
  285000    0.7841391 7.0337224e-05   0.40319788            0            0   0.40319788    1.1664069    1.5696048    3.9704487 
  290000   0.80756872 -7.7950661e-05   0.37050925            0            0   0.37050925    1.2012585    1.5717677   -1.0889482 
  295000   0.81100165 4.9330331e-05   0.34765368 0.00059001968            0   0.34706366    1.2063649    1.5540186    3.2378273 
  300000   0.78307837 2.5419726e-05    0.3806037 0.0028055516            0   0.37779815    1.1648291    1.5454328    2.4130928 
  305000   0.83091299 -0.0001016246   0.31882979 0.0027779891            0    0.3160518    1.2359831    1.5548129   -1.9139736 
  310000   0.82144417 8.1969978e-05   0.35498956 0.00080894835            0   0.35418061    1.2218982    1.5768878    4.3747963 
  315000   0.82268278 -1.479513e-05   0.37391174            0            0   0.37391174    1.2237406    1.5976524    1.0926453 
  320000   0.87405643 -9.0901533e-06   0.28555094            0            0   0.28555094    1.3001589    1.5857099    1.2754326 
  325000   0.83967837 1.2827712e-05   0.33238885            0            0   0.33238885    1.2490216    1.5814104     2.019263 
  330000   0.81922802 4.293497e-06    0.3519565            0            0    0.3519565    1.2186017    1.5705582    1.7171095 
  335000   0.78026086 -9.2779836e-05   0.39441481            0            0   0.39441481     1.160638    1.5550528   -1.6118322 
  340000   0.81240085 5.4783811e-06   0.36995074            0            0   0.36995074    1.2084463     1.578397    1.7653924 
  345000   0.83705208 1.3123042e-05   0.35173806            0            0   0.35173806     1.245115     1.596853    2.0447862 
  350000   0.81507632 4.6100945e-05   0.37226141            0            0   0.37226141     1.212426    1.5846874    3.1582664 
  355000   0.81637382 -4.0748773e-05   0.38870972            0            0   0.38870972    1.2143561    1.6030658   0.21217435 
  360000   0.78317403 3.7284175e-05   0.41440459            0            0   0.41440459    1.1649714     1.579376    2.8520091 
  365000   0.78143207 -7.2311015e-05   0.40170564            0            0   0.40170564    1.1623802    1.5640859  -0.90413012 
  370000   0.82788545 -6.6561958e-05    0.3349508            0            0    0.3349508    1.2314796    1.5664304   -0.7055511 
  375000   0.83839249 0.00014456562   0.31739253            0            0   0.31739253    1.2471088    1.5645014    6.4990078 
  380000   0.83585381 -0.00014225274   0.33216724            0            0   0.33216724    1.2433325    1.5754998   -3.2800603 
  385000   0.83753203 -4.8659469e-05      0.33195            0            0      0.33195    1.2458289    1.5777789 -0.083130975 
  390000   0.83882346 0.00014851263   0.31726079 0.00040323818            0   0.31685756    1.2477499    1.5650107    6.6342417 
  395000   0.78280437 -0.00014774574   0.38153207 0.0050126786            0   0.37651939    1.1644215    1.5459536   -3.4971011 
  400000   0.78944404 0.0001143949   0.39695357 0.0045281828            0   0.39242539     1.174298    1.5712516    5.4759307 
  405000   0.82928802 7.3031699e-05   0.36355532 0.0069578246            0    0.3565975    1.2335659    1.5971212    4.0899366 
  410000   0.76484901 -0.00016369477    0.4283671 0.0063732379            0   0.42199386    1.1377129      1.56608   -4.0213681 
  415000   0.80470124 0.00015243332   0.35836068 5.8875158e-05            0    0.3583018    1.1969931    1.5553538    6.7584112 
  420000    0.8610725 -5.0694538e-05   0.28257571            0            0   0.28257571    1.2808453    1.5634211  -0.16695252 
  425000   0.75541386 -2.4957521e-05   0.42261806            0            0   0.42261806    1.1236781    1.5462962    0.6944128 
  430000   0.78424561  3.65049e-05   0.37783919            0            0   0.37783919    1.1665653    1.5444045    2.7904385 
  435000   0.84173577 -5.8072486e-06   0.31169792            0            0   0.31169792     1.252082    1.5637799    1.3655591 
  440000   0.74685038 -0.00013479371   0.44163409            0            0   0.44163409    1.1109399     1.552574   -3.0483846 
  445000   0.80300425 0.00019261531   0.37348999            0            0   0.37348999    1.1944688    1.5679588    8.1425615 
  450000   0.80086737 -0.00019370302   0.37261069            0            0   0.37261069    1.1912902    1.5639009   -5.0478289 
  455000   0.79836989 5.5721212e-05   0.36617601 0.00036478761            0   0.36581123    1.1875752    1.5537512    3.4557019 
  460000   0.79824193 6.1751679e-05   0.36698557 0.0018591054            0   0.36512646    1.1873849    1.5543704    3.6621611 
  465000   0.73374112 -8.0676462e-05   0.47566519 0.0036550212            0   0.47201017    1.0914399    1.5671051   -1.1866515 
  470000   0.76900841 6.1114002e-05   0.40920485 0.0032618558            0   0.40594299       1.1439    1.5531049    3.6391294 
  475000   0.80166003 8.3724106e-05    0.3528936 0.0013723106            0   0.35152129    1.1924693    1.5453629    4.4031457 
  480000   0.79234156 -0.00015484742   0.36004442 1.5120067e-05            0    0.3600293    1.1786081    1.5386525   -3.7468062 
  485000   0.77188671 0.00017679618   0.36991902            0            0   0.36991902    1.1481815    1.5181005    7.5527435 
  490000   0.77103259 -0.0002672911   0.37721223            0            0   0.37721223     1.146911    1.5241232   -7.5994129 
  495000   0.79400017 0.00013477334   0.36708305            0            0   0.36708305    1.1810753    1.5481583    6.1484218 
  500000   0.80146496 -8.1895015e-05   0.36942747            0            0   0.36942747    1.1921791    1.5616066   -1.2337432 
  505000   0.84169288 -0.00016305998    0.3399618            0            0    0.3399618    1.2520182      1.59198   -3.9738009 
  510000   0.84731303 0.00019747246    0.3288475            0            0    0.3288475    1.2603781    1.5892256     8.329619 
  515000    0.7842158 -0.00019279342   0.41021298            0            0   0.41021298     1.166521     1.576734   -5.0039479 
  520000   0.79050818 0.00026467108   0.38405396            0            0   0.38405396    1.1758809    1.5599349    10.594041 
  525000   0.76171368 -0.00019012188   0.45204486            0            0   0.45204486    1.1330491     1.585094   -4.9043995 
  530000    0.8038714 0.0001890444   0.39670292            0            0   0.39670292    1.1957587    1.5924616    8.0451772 
  535000   0.77047358 -8.6287723e-05   0.44197296            0            0   0.44197296    1.1460794    1.5880524   -1.3572352 
  540000   0.80257144 -8.9370745e-05    0.3874617            0            0    0.3874617     1.193825    1.5812867   -1.4692347 
  545000   0.77467463 0.00010589664   0.41190676            0            0   0.41190676    1.1523285    1.5642353    5.1788405 
  550000   0.71747988 -7.5649019e-05   0.47631789            0            0   0.47631789    1.0672513    1.5435692    -1.038584 
  555000   0.77328788 4.0731972e-05   0.40014265            0            0   0.40014265    1.1502657    1.5504084    2.9407263 
  560000   0.80276547 -2.1455308e-05    0.3689423            0            0    0.3689423    1.1941136    1.5630559   0.83071476 
  565000   0.77083523 -3.4485923e-06   0.42934915            0            0   0.42934915    1.1466174    1.5759666    1.4582546 
  570000   0.79550186 -6.2835919e-05   0.41580397            0            0   0.41580397     1.183309     1.599113  -0.54568638 
  575000   0.79558022 9.1515483e-05    0.4236238            0            0    0.4236238    1.1834256    1.6070494    4.7307779 
  580000   0.84737649 -0.00010500357   0.35498381            0            0   0.35498381    1.2604725    1.6154563   -1.9686655 
  585000   0.82117718 9.7121188e-05   0.39804066 0.00028220746            0   0.39775845    1.2215011    1.6195417    4.9346116 
  590000   0.79510433 -7.3992329e-05   0.43735213 0.0025934695            0   0.43475866    1.1827177    1.6200698  -0.90553499 
  595000   0.79327688 -0.00012656415   0.44534079 0.0037236199            0   0.44161717    1.1799994    1.6253401   -2.6947162 
  600000   0.84699915 3.7380452e-05   0.36725917 0.0012899526            0   0.36596921    1.2599112    1.6271704    2.9030898 
  605000   0.81118492 3.1797718e-05   0.43469941 0.00085373731            0   0.43384567    1.2066376     1.641337    2.7266991 
  610000   0.75352866 -1.2250146e-05   0.51875912 0.0027470684            0   0.51601205    1.1208739     1.639633    1.2214947 
  615000   0.80319902 -2.9442226e-05   0.42475699  0.001617461            0   0.42313953    1.1947585    1.6195155    0.6145542 
  620000   0.76964211 0.00011428814   0.47155733 0.00058231925            0   0.47097501    1.1448426       1.6164    5.5174353 
  625000   0.81972317 -7.9379993e-05   0.39144239            0            0   0.39144239    1.2193382    1.6107806   -1.0987231 
  630000   0.76535303 6.4652944e-05   0.46934911            0            0   0.46934911    1.1384626    1.6078117    3.8146322 
  635000   0.78201001 -5.0823971e-05   0.43419788            0            0   0.43419788    1.1632399    1.5974378  -0.13735378 
  640000   0.76072116 7.4636062e-05   0.44935773            0            0   0.44935773    1.1315727    1.5809305    4.1285081 
  645000   0.79249322 -6.9826472e-05    0.4015244 0.00024812851            0   0.40127627    1.1788337    1.5803581  -0.80305218 
  650000    0.7644894 -4.8494137e-05   0.46530782 0.0054561375            0   0.45985168     1.137178    1.6024858 -0.052780742 
  655000   0.83098014 5.0556856e-06   0.39629703 0.0086840439            0   0.38761298     1.236083      1.63238    1.8049474 
  660000   0.81162543 2.6768638e-06   0.43078825  0.005619891            0   0.42516836    1.2072928    1.6380811    1.7294514 
  665000   0.77711367 -5.8147887e-05   0.48389511 0.0070342734            0   0.47686083    1.1559566    1.6398517  -0.34492953 
  670000   0.79763723 0.00013312434   0.47015133 0.0036891628            0   0.46646217    1.1864854    1.6566367    6.2006143 
  675000   0.88903551 -2.1292773e-05   0.37480286 0.00059936987            0   0.37420349    1.3224403    1.6972432   0.97044988 
  680000   0.82813866 -3.455675e-05   0.43928533            0            0   0.43928533    1.2318563    1.6711416   0.49160453 
  685000   0.84505659 -2.6254822e-05   0.41886241            0            0   0.41886241    1.2570217    1.6758841    0.7797195 
  690000   0.84421114 4.6162816e-05   0.42886964 2.6894319e-06            0   0.42886695    1.2557641    1.6846337    3.2603245 
  695000    0.8755536 0.00010048714   0.41529047 0.00057797478            0    0.4147125     1.302386    1.7176765    5.1476375 
  700000   0.87121221 7.499657e-05   0.45029798 0.0020543649            0   0.44824361    1.2959282    1.7462261    4.3061091 
  705000   0.89890376 -0.00019513158   0.43415276 0.0017511436            0   0.43240162    1.3371193    1.7712721   -4.8892191 
  710000   0.89831366 0.00015648159   0.42528211 0.0003140383            0   0.42496807    1.3362416    1.7615237    7.1027621 
  715000    0.8959608 -3.3351763e-05   0.41516548 0.0010396795            0    0.4141258    1.3327417    1.7479072   0.60950033 
  720000   0.87201497 -4.4643551e-05   0.44665763 0.0031614186            0   0.44349621    1.2971223    1.7437799   0.21994669 
  725000   0.91822292 -3.9082306e-05   0.37332432 0.0023041688            0   0.37102015    1.3658566    1.7391809   0.40517155 
  730000   0.84742857 -4.1009129e-05   0.46044602 0.00046623661            0   0.45997978      1.26055     1.720996   0.32121774 
  735000   0.88196028 -1.8573006e-06   0.40493778 1.7343761e-05            0   0.40492044    1.3119159    1.7168537    1.6534578 
  740000   0.83290621 -3.3897137e-05   0.45730805            0            0   0.45730805     1.238948     1.696256   0.53923376 
  745000   0.85812234 0.00012657308   0.38909186            0            0   0.38909186     1.276457    1.6655488    5.9859101 
  750000    0.8347768 -8.678316e-05   0.41794164 0.00011714909            0   0.41782449    1.2417305    1.6596721   -1.3025264 
  755000   0.77112755 -1.3658917e-05   0.50620196 0.0011649068            0   0.50503705    1.1470522    1.6532542    1.1870298 
  760000   0.78663819 -2.0484039e-05   0.47597938 0.0022785042            0   0.47370088    1.1701243    1.6461037   0.94691516 
  765000   0.84165045 3.4338236e-05   0.41415447 0.0016569084            0   0.41249756     1.251955    1.6661095     2.838188 
  770000    0.8262576 -2.3787077e-06   0.45271582 0.0010731836            0   0.45164264    1.2290582     1.681774    1.6005808 
  775000   0.83128589 -3.2897561e-05   0.46127186 0.00061220733            0   0.46065965    1.2365378    1.6978096   0.57490622 
  780000   0.88031617 -2.1808267e-05   0.38160258 0.0026672194            0   0.37893536    1.3094703    1.6910729   0.94668402 
  785000   0.84151901 1.5187662e-05   0.43846021 0.0071405879            0   0.43131962    1.2517595    1.6902197    2.2086253 
  790000   0.83451443 -4.9910954e-05   0.44475871 0.0037479526            0   0.44101075    1.2413402    1.6860989 -0.017528302 
  795000   0.88264424 -2.7473923e-05   0.37614372  0.003031559            0   0.37311216    1.3129333     1.689077   0.75130047 
  800000   0.86679406 0.00014404052   0.38103176 0.00095797687            0   0.38007379    1.2893562    1.6703879    6.5869708 
  805000   0.85012297 -0.0001025477   0.41737506            0            0   0.41737506    1.2645579     1.681933   -1.8183617 
  810000    0.8608389 0.00013388499   0.42386628            0            0   0.42386628    1.2804979    1.7043641    6.2743053 
  815000   0.81324128 -8.3038917e-05   0.48295303            0            0   0.48295303    1.2096964    1.6926494   -1.1417456 
  820000   0.84003041 0.00030476214   0.44948985            0            0   0.44948985    1.2495452    1.6990351    12.101583 
  825000   0.85038349 -0.00014853155   0.41180357            0            0   0.41180357    1.2649454     1.676749   -3.3931278 
  830000   0.84013531 -0.00012862256   0.44254674            0            0   0.44254674    1.2497013     1.692248   -2.6980688 
  835000   0.89017013 2.9383342e-05   0.38426916            0            0   0.38426916    1.3241281    1.7083972    2.7113486 
  840000   0.90787923 -1.7701402e-05   0.39218589            0            0   0.39218589    1.3504704    1.7426562    1.1384484 
  845000   0.89361134 1.0882419e-05    0.4108736 0.00027325055            0   0.41060035    1.3292469    1.7401205    2.1115737 
  850000   0.82545517 -0.00013221143   0.49282045 0.00056167535            0   0.49225877    1.2278646     1.720685   -2.7921317 
  855000   0.89208115 0.00019375241   0.38091793 0.00031179421            0   0.38060614    1.3269707    1.7078886    8.3213042 
  860000   0.88946972 -2.1170389e-05   0.39909348 2.7681213e-05            0    0.3990658    1.3230862    1.7221797   0.99956376 
  865000   0.85198054 -3.0209876e-05   0.45543901            0            0   0.45543901    1.2673211    1.7227601    0.6915963 
  870000   0.86035747 -1.9257866e-05   0.44668373            0            0   0.44668373    1.2797817    1.7264655    1.0691303 
  875000   0.85603844 -1.1605367e-05   0.45541881 5.4392145e-07            0   0.45541826    1.2733572     1.728776    1.3326461 
  880000   0.84947557 7.6588307e-05   0.46575569            0            0   0.46575569    1.2635949    1.7293506    4.3435648 
  885000   0.86753751 -0.0001541725   0.45396189            0            0   0.45396189     1.290462    1.7444239   -3.5179973 
  890000   0.86963053 0.00023256976   0.48310157 8.8675439e-05            0   0.48301289    1.2935754     1.776677     9.715058 
  895000   0.88928855 -1.7948917e-06   0.45530384 0.0051325535            0   0.45017128    1.3228167    1.7781206    1.7168549 
  900000   0.91061172 2.3779592e-05   0.43639201  0.012059815            0   0.42433219    1.3545349    1.7909269    2.6026037 
  905000   0.87663158 2.8320147e-05   0.46423421  0.005559494            0   0.45867472    1.3039895    1.7682237    2.7348847 
  910000   0.91280584 -9.4707816e-05   0.41825519 0.0038112262            0   0.41444396    1.3577987    1.7760539   -1.4566396 
  915000   0.88286272  5.95923e-05   0.42926895 0.0036911747            0   0.42557777    1.3132583    1.7425272    3.7766111 
  920000   0.88401455 7.9364703e-05    0.4405703 0.0034866301            0   0.43708367    1.3149716    1.7555419    4.4645238 
  925000   0.90722747 -3.7082955e-05    0.4096385 0.0021938157            0   0.40744469    1.3495009    1.7591394    0.4933745 
  930000   0.92482933 0.00017462398   0.39433628 0.0010416194            0   0.39329466    1.3756836    1.7700199    7.7305183 
  935000   0.82892552 -9.1739333e-05   0.52525862 0.0046052765            0   0.52065334    1.2330267    1.7582853   -1.3730839 
  940000   0.90267174 9.4093687e-06   0.39984087  0.004645097            0   0.39519577    1.3427242    1.7425651    2.0637382 
  945000   0.94217095 -4.9028377e-05   0.32770799 0.0020150087            0   0.32569298    1.4014793    1.7291873  0.055685352 
  950000    0.8706096 -1.0203312e-05   0.41627359 0.0072027285            0   0.40907086    1.2950318    1.7113054    1.3630323 
  955000   0.85139321 2.164683e-05   0.46607912 0.0070904062            0   0.45898871    1.2664474    1.7325265     2.471405 
  960000   0.82566769 -4.2037651e-05   0.50897434 0.00050042886            0   0.50847391    1.2281807     1.737155   0.30226988 
  965000   0.88912591 7.7765592e-06   0.44389625 8.6817518e-05            0   0.44380943    1.3225748     1.766471    2.0319109 
  970000   0.86174622 3.0685613e-05   0.49024669 2.368665e-06            0   0.49024432    1.2818475    1.7720942    2.8194964 
  975000   0.84457862 -2.9224752e-05   0.51566092 0.0038968643            0   0.51176406    1.2563107    1.7719716   0.77443341 
  980000   0.88189039 -6.6622618e-05    0.4873342 0.0095910362            0   0.47774317     1.311812    1.7991462  -0.47490588 
  985000   0.88558023 3.1937093e-05   0.49806637 0.0040718048            0   0.49399456    1.3173006     1.815367    2.9054864 
  990000   0.88957162 -0.00012261181   0.48630187 0.0046657383            0   0.48163613    1.3232378    1.8095397   -2.3756102 
  995000   0.89667722  0.000142657   0.46476193 0.0052571018            0   0.45950483    1.3338074    1.7985693    6.6679284 
 1000000   0.94112684 -5.5589917e-06   0.40367357 0.0047220374            0   0.39895153    1.3999262    1.8035997    1.6138528 
 1005000   0.91038873 -0.00010192622   0.47758773 0.00075551253            0   0.47683222    1.3542032     1.831791   -1.6472906 
 1010000    0.9156372 6.9083001e-05   0.47466087            0            0   0.47466087    1.3620103    1.8366712    4.1947043 
 1015000   0.93343654 -4.2012032e-05   0.45170229 0.0016106785            0   0.45009161    1.3884868    1.8401891   0.40617845 
 1020000   0.93662465 6.7508009e-05   0.43925995 0.0057526767            0   0.43350728    1.3932292    1.8324891    4.1367625 
 1025000   0.89569137 -5.0805167e-06   0.47818105 0.0026340216            0   0.47554703    1.3323409     1.810522     1.637107 
 1030000   0.88562968 3.3256506e-05   0.49855455 8.3376848e-05            0   0.49847118    1.3173741    1.8159287    2.9510841 
 1035000   0.87986646 -0.00017953993   0.50144913 1.2159204e-06            0   0.50144791    1.3088014    1.8102505   -4.3180459 
 1040000    0.9069423 2.7541872e-05   0.45718668 6.3807168e-05            0   0.45712288    1.3490767    1.8062634    2.7463593 
 1045000   0.91844927 1.0493402e-05    0.4572031 9.3322894e-05            0   0.45710977    1.3661933    1.8233964    2.1815712 
 1050000   0.94009537 -2.4584254e-05   0.41076954 0.00038581494            0   0.41038373    1.3983919    1.8091614   0.97001888 
 1055000   0.85372217 -0.00011774236   0.54552475 6.7567031e-05            0   0.54545718    1.2699117    1.8154365   -2.2035027 
 1060000   0.92659824 6.9019561e-05    0.4395775            0            0    0.4395775    1.3783149    1.8178924    4.1737601 
 1065000   0.90979169 6.2279913e-05   0.46207048            0            0   0.46207048    1.3533151    1.8153856    3.9412067 
 1070000   0.89339048 -9.415188e-06   0.49790877            0            0   0.49790877    1.3289183    1.8268271    1.5054554 
 1075000   0.90146972 -8.2950909e-05   0.49781758 2.4157115e-05            0   0.49779342    1.3409362    1.8387538  -0.99263725 
 1080000    0.9032944 0.00013488676   0.48319632 0.00083070568            0   0.48236562    1.3436504    1.8268467    6.4309815 
 1085000   0.92149378 -0.00014117966   0.45274133 0.0016712521            0   0.45107008     1.370722    1.8234633    -2.995469 
 1090000   0.94177717 0.00013265818   0.45251685 0.0013624685            0   0.45115438    1.4008935    1.8534104    6.3814763 
 1095000   0.92099704 3.4020668e-05   0.46395323 0.0027603706            0   0.46119286    1.3699831    1.8339363    2.9951751 
 1100000   0.88449821 -9.720528e-05   0.50775248 0.0080538304            0   0.49969865    1.3156911    1.8234436   -1.4944967 
 1105000   0.92082411 9.2448045e-05   0.46360107 0.0047848421            0   0.45881622    1.3697259    1.8333269    4.9888869 
 1110000   0.86739806 -0.00025215947   0.54569591 0.00062083411            0   0.54507508    1.2902546    1.8359505   -6.7710929 
 1115000   0.90136758 9.7491872e-05   0.51961799 0.00019351465            0   0.51942447    1.3407843    1.8604023    5.1881248 
 1120000   0.92907523 -0.0001472027   0.49221758 0.0054005809            0     0.486817    1.3819994     1.874217   -3.1503017 
 1125000   0.87006881 2.2255103e-05   0.57301615  0.023631993            0   0.54938416    1.2942274    1.8672435    2.6268843 
 1130000    0.7958159 -5.4841892e-06   0.68259999 0.0061030318            0   0.67649696    1.1837761    1.8663761    1.6791825 
 1135000   0.89967043 0.00014844797   0.53954913 0.0065886202            0   0.53296051    1.3382598    1.8778089    6.9448331 
 1140000   0.90011945 -1.2605163e-05   0.54516084  0.011162866            0   0.53399798    1.3389277    1.8840885    1.4538323 
 1145000   0.90865038 5.6828406e-05   0.55419122  0.015494799            0   0.53869642    1.3516174    1.9058087    3.8455516 
 1150000   0.90521885 -0.00014429675   0.53842501  0.004061279            0   0.53436373     1.346513    1.8849381    -3.040391 
 1155000   0.87998328 0.00010826587   0.57113568 0.0011075748            0   0.57002811    1.3089751    1.8801108    5.5755857 
 1160000    0.9236152 -3.1958843e-05   0.49866382 0.0056616291            0   0.49300219    1.3738776    1.8725414   0.78167959 
 1165000   0.86251913  2.19201e-05   0.60361719 0.0073429079            0   0.59627428    1.2829972    1.8866144    2.6348205 
 1170000   0.91448732 8.0605824e-05   0.53044528 0.0011029796            0    0.5293423    1.3602999    1.8907452    4.6420906 
 1175000   0.96990857 -1.1735838e-06   0.45761591 0.0061845723            0   0.45143134     1.442739    1.9003549    1.8602966 
 1180000    0.8822011 -3.3445513e-05   0.58436994 0.0069908755            0   0.57737907    1.3122741    1.8966441   0.75503723 
 1185000     0.991515 6.6675567e-05   0.45072124 0.0027486728            0   0.44797256    1.4748786    1.9255998    4.2014592 
 1190000   0.91531751 -2.0627431e-05   0.57234795  0.002036421            0   0.57031153    1.3615348    1.9338827    1.2297998 
 1195000   0.99538826 5.2535952e-06    0.4653442 0.0017969914            0   0.46354721      1.48064    1.9459842     2.125307 
 1200000   0.96163906 -1.3256154e-05   0.53012679 0.00094693829            0   0.52917985    1.4304381    1.9605649    1.5080882 
 1205000   0.93424467 -2.0587391e-05   0.59075569 3.5779943e-05            0   0.59071991     1.389689    1.9804446    1.2777284 
 1210000   0.95913235 0.00014019603   0.56448718 4.5984224e-06            0   0.56448258    1.4267094    1.9911965    6.7765542 
 1215000   0.97790496 -9.5654675e-05   0.55850965 0.0017142768            0   0.55679537    1.4546336    2.0131433   -1.2518696 
 1220000    1.0303016 -0.00012297464   0.46861058 6.4520003e-05            0   0.46854606    1.5325736    2.0011842   -2.1963503 
 1225000    1.0008876 6.8857598e-05   0.51214972            0            0   0.51214972    1.4888203      2.00097    4.3513093 
 1230000    1.0249626 0.00011497124   0.46749387 0.0026289141            0   0.46486496    1.5246319    1.9921258    5.9164775 
 1235000   0.99894326 -0.00018615675   0.54247787  0.018863575            0    0.5236143    1.4859281     2.028406   -4.3257445 
 1240000   0.96567177 -0.00023700684   0.62096981 0.0093735842            0   0.61159623    1.4364368    2.0574066    -6.032427 
 1245000   0.99704692 0.00016351891    0.6065604  0.010367823            0   0.59619258    1.4831073    2.0896677    7.6711131 
 1250000    1.0351886 -6.0941285e-05   0.54801849 0.0031924209            0   0.54482607    1.5398431    2.0878616 0.0077324245 
 1255000     1.038736 -0.00011697217   0.53215452 0.00062730957            0   0.53152721    1.5451198    2.0772743   -1.9153757 
 1260000    1.0203917 -0.00013892324   0.55632152 0.00079837366            0   0.55552314    1.5178326    2.0741541   -2.6677591 
 1265000    1.0476405 0.00011973406   0.51600083 0.0011521912            0   0.51484864    1.5583652     2.074366    6.1612885 
 1270000   0.96866314 -5.2183968e-05   0.60929864 0.0018353425            0    0.6074633    1.4408864    2.0501851   0.26897229 
 1275000     1.006003 0.00013059048   0.54103292 0.0064387477            0   0.53459417    1.4964295    2.0374624    6.4949507 
 1280000     1.018861 6.9756163e-05   0.53447272 0.0098791473            0   0.52459357    1.5155557    2.0500284    4.4310388 
 1285000    1.0164508 0.00015144717   0.53778765 0.0076950697            0   0.53009258    1.5119705    2.0497582    7.2191548 
 1290000   0.97529699 8.6995447e-06   0.59566732 0.0077532996            0   0.58791402    1.4507543    2.0464216    2.3433661 
 1295000    1.0469928 -0.00012571519   0.51059045 0.0024678276            0   0.50812263    1.5574018    2.0679923   -2.2230862 
 1300000    1.0936132 -0.00010614647   0.43369873 0.00039569987            0   0.43330303    1.6267496    2.0604483   -1.5626846 
 1305000    1.0005114 7.2069484e-05   0.57053545 0.0039453723            0   0.56659007    1.4882607    2.0587962    4.5187679 
 1310000    1.0120932 -5.3596876e-05   0.56733089 0.0054898076            0   0.56184109    1.5054886    2.0728195   0.24337943 
 1315000    1.0185649 6.9884626e-05    0.5829774 0.0013593653            0   0.58161804    1.5151154    2.0980928     4.483488 
 1320000    1.0931469 5.6929167e-05   0.48783088            0            0   0.48783088     1.626056    2.1138869    4.0570691 
 1325000    1.1017672 1.9198365e-05   0.51722003 0.00036956248            0   0.51685046    1.6388787    2.1560988    2.8114029 
 1330000    1.1099894 -2.8053279e-05   0.48522287 0.0014102653            0   0.48381261    1.6511092    2.1363321    1.1787802 
 1335000    1.0655464 -0.00023582755   0.52964101 0.0015457015            0   0.52809531    1.5850003    2.1146413   -5.9349391 
 1340000    1.0451752 0.00022548712   0.54866392 0.00072065406            0   0.54794326    1.5546981     2.103362    9.7999891 
 1345000    1.0829165 1.899991e-05   0.47053908 0.0044304067            0   0.46610867    1.6108383    2.0813774    2.7299077 
 1350000   0.99525185 -0.00022057859   0.58855434 0.0084513114            0   0.58010303    1.4804371    2.0689915   -5.4600909 
 1355000     1.051627 3.4709032e-06   0.51440889 0.0024602897            0    0.5119486    1.5642951     2.078704    2.1971775 
 1360000    1.0210937 -5.4297551e-05   0.54163069 0.0004637857            0    0.5411669    1.5188769    2.0605075   0.20715115 
 1365000    1.0179774 -8.7166515e-05   0.54493794 0.0014343762            0   0.54350357    1.5142413    2.0591793  -0.91610444 
 1370000    1.0157015 8.9920168e-05   0.53619583 0.0058507778            0   0.53034505     1.510856    2.0470518    5.1163269 
 1375000    1.0118788 -0.00013481502   0.55332572  0.016601956            0   0.53672377    1.5051697    2.0584954   -2.5431906 
 1380000    1.0665713 4.9066813e-05   0.47560555 0.0027390149            0   0.47286654    1.5865248    2.0621303    3.7369442 
 1385000    1.0377944 -9.4171111e-05   0.51756709  0.001801556            0   0.51576554    1.5437191    2.0612862   -1.1530877 
 1390000    1.0069877 -8.8603646e-05   0.55411299 0.0035651994            0   0.55054779    1.4978942    2.0520072  -0.97233062 
 1395000    1.0632872 -0.0001392138   0.45823959   0.01045483            0   0.44778476    1.5816397    2.0398792   -2.7119518 
 1400000   0.98427353 0.00022888717   0.57052718  0.015750622            0   0.55477656    1.4641069    2.0346341     9.847316 
 1405000   0.93572955 4.2553612e-05   0.65675139  0.013630557            0   0.64312083    1.3918977    2.0486491    3.5011457 
 1410000    1.0137043 3.3100576e-05   0.56732047  0.017106034            0   0.55021444    1.5078851    2.0752056    3.2050386 
 1415000     1.015663 -0.00016338014   0.56054783   0.01467911            0   0.54586872    1.5107987    2.0713466   -3.5053624 
 1420000    1.0058785 1.5142627e-05   0.58932086  0.011242725            0   0.57807814    1.4962443    2.0855651    2.6024335 
 1425000    1.0230881 5.9051234e-05    0.5244343 0.0032755472            0   0.52115875    1.5218435    2.0462778    4.0618933 
 1430000   0.98825157 -4.2131579e-05   0.57728293 0.00020962118            0   0.57707331    1.4700242    2.0473071   0.60921592 
 1435000    1.0519336 9.0628005e-05   0.49422534 0.0064410424            0    0.4877843    1.5647513    2.0589766    5.1524125 
 1440000   0.98031622 8.4910273e-05   0.58547879 0.0099813164            0   0.57549747    1.4582204    2.0436992    4.9419698 
 1445000   0.98505908 1.8405918e-05   0.59032437 0.0054037987            0   0.58492058    1.4652754    2.0555998    2.6838551 
 1450000    1.0018282 -1.7921758e-05   0.58507384  0.016771408            0   0.56830243    1.4902194    2.0752932    1.4635639 
 1455000    1.0043463 8.6480448e-05   0.57243325  0.011340733            0   0.56109252    1.4939651    2.0663983    5.0182643 
 1460000   0.97363108 -0.00010399049   0.61996946  0.014889468            0   0.60507999    1.4482762    2.0682457   -1.4812963 
 1465000   0.99147573 -0.00012305487    0.6006247  0.010201661            0   0.59042304    1.4748201    2.0754448    -2.124828 
 1470000    1.0403179 4.4148712e-05   0.53389591 0.0015621108            0    0.5323338    1.5474729    2.0813688    3.5883115 
 1475000    1.0436494 7.5613314e-05   0.53707983 0.0014627992            0   0.53561703    1.5524285    2.0895083    4.6704428 
 1480000    1.0566688 -1.7633795e-06   0.53166449   0.00692789            0    0.5247366    1.5717948    2.1034593    2.0432693 
 1485000    1.0443231 -8.804851e-05   0.56245077  0.002064491            0   0.56038628    1.5534305    2.1158813  -0.88950784 
 1490000    1.0191425 -0.00015865833   0.58788034 0.00017586778            0   0.58770447    1.5159744    2.1038548   -3.3116827 
 1495000    1.0198093 0.00011797257   0.55948109            0            0   0.55948109    1.5169664    2.0764475    6.1032445 
 1500000    1.0128888 4.0098542e-05   0.57429476 0.00072520027            0   0.57356956     1.506672    2.0809668    3.4496637 
 1505000     1.017803 4.0530833e-05   0.55805006 0.0086485905            0   0.54940147    1.5139819     2.072032    3.4554844 
 1510000   0.94433267 -0.00021487951   0.66854471 0.0065848042            0    0.6619599    1.4046949    2.0732396   -5.2613144 
 1515000    1.0450079 -4.7718263e-05   0.49679587  0.014286102            0   0.48250977    1.5544493    2.0512451   0.42246177 
 1520000    1.0267003 5.8913589e-05   0.52683982  0.011302444            0   0.51553738    1.5272168    2.0540566    4.0649738 
 1525000   0.97770708 4.3078147e-05   0.59727064 0.0062599141            0   0.59101073    1.4543393    2.0516099    3.5220107 
 1530000    1.0508496 -3.7944652e-05   0.46513273 0.0063635294            0   0.45876921    1.5631388    2.0282715   0.73309407 
 1535000   0.99745697 4.2332009e-05   0.54213161 0.0055992363            0   0.53653237    1.4837172    2.0258489    3.4707814 
 1540000   0.98788767 -1.7372334e-05   0.55478789  0.010155057            0   0.54463283    1.4694829    2.0242708    1.4312951 
 1545000    1.0545294 -7.0380328e-05   0.47828772 0.0096039704            0   0.46868375    1.5686126    2.0469003  -0.35541493 
 1550000   0.96894794 0.00013292937   0.60991151   0.00607773            0   0.60383378    1.4413101    2.0512216    6.5885441 
 1555000   0.98886856 -5.8150501e-05   0.57271305 0.0096036019            0   0.56310944     1.470942     2.043655  0.058784592 
 1560000    1.0121781 2.7313988e-05   0.53692261 0.0039708221            0   0.53295179     1.505615    2.0425376    2.9748551 
 1565000    1.0508646 9.910987e-05    0.4986558 0.0053498057            0   0.49330599    1.5631611    2.0618169    5.4447672 
 1570000   0.98485061 -4.0981791e-05   0.59151866 0.0027832275            0   0.58873543    1.4649653    2.0564839   0.65763882 
 1575000    1.0592962  1.97364e-05    0.4778621 9.4980841e-05            0   0.47776712     1.575703    2.0535651    2.7272342 
 1580000    1.0923813 -0.00012178938   0.45159563 0.0036051112            0   0.44799052    1.6249173    2.0765129   -2.0805648 
 1585000    1.0629324 -7.05413e-05   0.52024337  0.012493031            0   0.50775034     1.581112    2.1013554  -0.30645432 
 1590000    1.0782256 1.9716992e-05   0.52154114  0.019129032            0   0.50241211    1.6038605    2.1254017    2.7984083 
 1595000    1.0824399 8.926375e-05   0.49427659  0.011178362            0   0.48309823    1.6101294     2.104406    5.1512753 
 1600000    1.0150387 0.00020610417    0.6254535 0.0015592521            0   0.62389424      1.50987    2.1353235    9.1703457 
 1605000   0.98846237 -2.0897598e-05   0.67923251 0.0013311839            0   0.67790133    1.4703378    2.1495703    1.4362656 
 1610000    1.0740484 -7.7698204e-05   0.53454437 0.0016125999            0   0.53293177     1.597647    2.1321914  -0.51990733 
 1615000    1.1230378 4.2417626e-05   0.45703121 0.0019195977            0   0.45511161    1.6705187    2.1275499    3.5754048 
 1620000    1.0647936 8.6064171e-05   0.54332683 0.0013702246            0    0.5419566    1.5838805    2.1272073    5.0648644 
 1625000    1.0297692 -0.00015747956   0.58462988 0.0086034978            0   0.57602638    1.5317818    2.1164116   -3.2588908 
 1630000     1.023139 2.5076845e-05   0.61876393  0.014367529            0    0.6043964    1.5219192    2.1406831    2.9966395 
 1635000    1.0322514 -4.2262175e-06   0.60110882  0.018173616            0    0.5829352    1.5354739    2.1365828    1.9923279 
 1640000     1.084417 -1.2308434e-05   0.52879184   0.00712357            0   0.52166827    1.6130703    2.1418621    1.7217342 
 1645000    1.0530943 0.00010089755   0.56318529  0.010932382            0   0.55225291    1.5664777     2.129663    5.5736327 
 1650000    1.0584179 -0.00014538353   0.54959895  0.030717932            0   0.51888102    1.5743966    2.1239956   -2.8384289 
 1655000    1.0080301 -0.00015400989   0.62073497   0.02484285            0   0.59589212    1.4994448    2.1201797   -3.1366911 
 1660000    1.0576552 0.0002133383   0.55554708  0.022751875            0   0.53279521    1.5732621    2.1288092    9.4107566 
 1665000    1.0480798 -2.4320859e-05    0.5668753  0.010752718            0   0.55612258    1.5590186    2.1258939     1.295742 
 1670000    1.0483322 0.00013317108   0.57850313 0.0022215287            0    0.5762816    1.5593942    2.1378973    6.6834701 
 1675000    1.0340985 0.00018168074   0.61180314 0.0024730393            0    0.6093301    1.5382215    2.1500246    8.3513938 
 1680000    1.0622204 0.00017229284   0.54144395 0.0098608155            0   0.53158314    1.5800528    2.1214968    8.0024258 
 1685000     1.057211 4.9926606e-06    0.5690085  0.013542948            0   0.55546555    1.5726014    2.1416099     2.312026 
 1690000   0.99856086 -0.00016414455   0.65161801 0.0055330087            0     0.646085    1.4853593    2.1369773   -3.4658234 
 1695000    1.0567908 3.2047339e-06   0.56773929  0.034244435            0   0.53349485    1.5719763    2.1397156    2.2491038 
 1700000    1.0227209 -0.00011120116      0.62655  0.065776026            0   0.56077397    1.5212974    2.1478474   -1.6478188 
 1705000    1.0552046 8.8877042e-05   0.58530719  0.025253654            0   0.56005354    1.5696168     2.154924    5.1885937 
 1710000    1.0786356 0.00019977334   0.54646869   0.02215365            0   0.52431504    1.6044704    2.1509391    8.9698692 
 1715000     1.063374 -3.949564e-06   0.57409916  0.018252302            0   0.55584686    1.5817688     2.155868    2.0210562 
 1720000    1.0953479 -6.0842911e-05   0.52548063  0.013239965            0   0.51224067      1.62933    2.1548106  0.078039257 
 1725000    1.1483947 3.9967695e-05   0.44488668   0.00610733            0   0.43877935    1.7082371    2.1531237    3.5173544 
 1730000    1.0677691 -1.2684086e-05   0.57694609 0.0037347257            0   0.57321137    1.5883065    2.1652526    1.7323024 
 1735000    1.1182195 -7.04149e-05   0.49856858 0.0051903202            0   0.49337826    1.6633515    2.1619201  -0.24157517 
 1740000    1.0736013 -7.7763351e-05   0.55500924 0.0050092803            0   0.54999996     1.596982    2.1519912   -0.5023312 
 1745000    1.0812178 6.7014609e-05   0.52010573  0.021676789            0   0.49842894    1.6083115    2.1284172    4.4158492 
 1750000    1.0547003 -7.2527813e-05    0.5528993   0.03108933            0   0.52180997    1.5688667     2.121766  -0.35384997 
 1755000    1.0395067 -7.4147707e-05   0.58290483 0.0038050353            0    0.5790998    1.5462663    2.1291711   -0.4017373 
 1760000    1.0419028 0.00011101558   0.57069104 0.0048919831            0   0.56579906    1.5498305    2.1205215    5.9098534 
 1765000    1.1128091 -6.0138309e-05   0.49138557 0.0011909588            0   0.49019461    1.6553035     2.146689  0.093968085 
 1770000    1.0710231 2.8439446e-05   0.56433893 0.0034328413            0   0.56090609    1.5931468    2.1574858    3.1282189 
 1775000    1.0027356 9.5399959e-05   0.67042581 0.0044275414            0   0.66599827    1.4915692     2.161995    5.4183136 
 1780000    1.0774464 0.00021300569   0.56450446 0.0011422447            0   0.56336222    1.6027015    2.1672059    9.4378003 
 1785000    1.0572621 6.624334e-05   0.61363862 0.0041099208            0    0.6095287    1.5726774     2.186316     4.447422 
 1790000    1.1458337 -3.6044662e-05   0.51457436 0.0094744924            0   0.50509987    1.7044276    2.2190019   0.98867748 
 1795000     1.025558 -0.0001445963   0.69054703 0.0071729203            0   0.68337411    1.5255175    2.2160645   -2.7194892 
 1800000    1.1334882 -9.7743308e-05   0.53973339  0.013709388            0     0.526024    1.6860636     2.225797   -1.1105079 
 1805000    1.0505062 6.1524927e-05   0.66026296  0.053119028            0   0.60714393    1.5626279    2.2228909    4.3229418 
 1810000     1.077865 9.1541993e-05   0.59239584 0.0096697509            0   0.58272609    1.6033242      2.19572    5.3203534 
 1815000    1.1176877 -7.1147504e-05   0.54008432  0.014440984            0   0.52564333    1.6625604    2.2026447  -0.22585675 
 1820000    1.1314668 4.3259433e-05   0.51423184  0.025449295            0   0.48878255    1.6830569    2.1972888    3.6738774 
 1825000    1.1302706 7.6352255e-05    0.5438352  0.019009636            0   0.52482556    1.6812775    2.2251127    4.8312696 
 1830000    1.0986035 -8.9624628e-05   0.59007911  0.049693671            0   0.54038544    1.6341728    2.2242519  -0.83493543 
 1835000    1.0939185 3.6786582e-05   0.61686688 0.0065746172            0   0.61029227    1.6272038    2.2440707    3.4997193 
 1840000    1.1397835 -2.9871286e-05   0.53423036  0.020245718            0   0.51398464    1.6954279    2.2296583    1.2100517 
 1845000    1.1401257 6.0602982e-05   0.55248284  0.024892339            0   0.52759051     1.695937    2.2484199    4.3170017 
 1850000    1.1309103 0.00011170515   0.55000571  0.014345055            0   0.53566066    1.6822291    2.2322348     6.045104 
 1855000    1.0555314 -1.6567587e-05   0.65920749 0.0079664724            0   0.65124102     1.570103    2.2293105    1.6638035 
 1860000    1.1251124 -8.9066565e-05   0.56029827 0.0099979914            0   0.55030028    1.6736047     2.233903  -0.80623576 
 1865000     1.078889 4.4410297e-05   0.60694348  0.013483744            0   0.59345973    1.6048475    2.2117909    3.7276624 
 1870000    1.0855771 -8.1890978e-05   0.61135516  0.026616195            0   0.58473897    1.6147959    2.2261511  -0.56906098 
 1875000    1.1200949 0.00015508818   0.56188888  0.025334712            0   0.53655417    1.6661412      2.22803    7.5217066 
 1880000    1.0659108 9.1084041e-05   0.64792518  0.020346361            0   0.62757882    1.5855423    2.2334675    5.3424694 
 1885000     1.079756 -6.7499807e-05   0.63726552  0.022805719            0    0.6144598     1.606137    2.2434025 -0.060590876 
 1890000    1.0874114 -0.00013952243   0.64407633  0.010922676            0   0.63315365    1.6175245    2.2616009   -2.5007647 
 1895000    1.1429009 -2.1037427e-05   0.57142052 0.0025754141            0    0.5688451     1.700065    2.2714855     1.553408 
 1900000    1.1379797 2.0713256e-05   0.55443927  0.010675512            0   0.54376376    1.6927447     2.247184    2.9541965 
 1905000    1.1804767 0.00016219946   0.48775528 0.0069327614            0   0.48082252     1.755959    2.2437143    7.7801225 
 1910000    1.0814274 -7.3320579e-05    0.6151323  0.025193554            0   0.58993875    1.6086233    2.2237556  -0.27892013 
 1915000    1.1478434 1.844446e-05   0.53043408  0.015341428            0   0.51509265     1.707417    2.2378511     2.867422 
 1920000    1.1120414 0.00012868863   0.60689454   0.01214986            0   0.59474468    1.6541615    2.2610561     6.653628 
 1925000    1.0759924 0.00013028126   0.66680818  0.025253238            0   0.64155494    1.6005387    2.2673469    6.7142804 
 1930000    1.1353052 0.00014460373   0.57476507  0.025431137            0   0.54933393    1.6887665    2.2635316     7.199339 
 1935000    1.0554816 -1.8640531e-05   0.67290107  0.031653309            0   0.64124777    1.5700288    2.2429299    1.6066664 
 1940000    1.1367654 -0.00013810562   0.53770662  0.022299331            0   0.51540729    1.6909385    2.2286451   -2.4853601 
 1945000     1.093148 -4.5921258e-05   0.58191423  0.014635286            0   0.56727894    1.6260576    2.2079718   0.64052623 
 1950000    1.1255142 8.4408574e-05   0.54152644  0.017652241            0    0.5238742    1.6742023    2.2157288    5.0968747 
 1955000    1.0792062 -7.1492165e-05   0.62783113  0.045358785            0   0.58247235    1.6053193    2.2331504   -0.2071155 
 1960000    1.0670249 -8.7508765e-05    0.6328388 0.0090136534            0   0.62382515    1.5871996    2.2200384  -0.76692749 
 1965000    1.0698163 -0.00010236559    0.6216458  0.019852514            0   0.60179329    1.5913518    2.2129976   -1.2810811 
 1970000    1.1451603 -3.0454513e-05   0.52838012  0.018632017            0    0.5097481    1.7034259     2.231806     1.192292 
 1975000    1.1411299 8.9783474e-05    0.5401071  0.014037156            0   0.52606995    1.6974308    2.2375379    5.3021471 
 1980000    1.1515652 -7.4641054e-06   0.53947401  0.010048383            0   0.52942563    1.7129532    2.2524272    1.9976524 
 1985000    1.1657946 1.4902095e-06   0.50975828 0.0057481194            0   0.50401016    1.7341194    2.2438777    2.2947435 
 1990000    1.1003056 -0.00011727764   0.62429266  0.019314213            0   0.60497845    1.6367046    2.2609973   -1.7420794 
 1995000    1.1532763 1.4142224e-05   0.55740621  0.011992591            0   0.54541362    1.7154984    2.2729047    2.7556259 
 2000000    1.1060883 3.7934146e-05   0.59297642  0.013136554            0   0.57983986    1.6453064    2.2382828    3.5331017 
 2005000    1.1666215 -7.3038544e-05   0.51867091  0.027635791            0   0.49103512    1.7353494    2.2540204  -0.23902862 
 2010000    1.1128308 -5.4613997e-05   0.60693669  0.030040958            0   0.57689573    1.6553358    2.2622725   0.39811467 
 2015000    1.1305115 0.00011390718   0.57236138  0.041279587            0   0.53108179    1.6816358    2.2539972    6.1420289 
 2020000    1.0873117 7.2287367e-05   0.63296792  0.013940844            0   0.61902708    1.6173761     2.250344    4.7177528 
 2025000    1.1423542 -0.00013808246   0.55244525  0.011257001            0   0.54118825    1.6992518    2.2516971   -2.4615175 
 2030000    1.0976444 -0.00014625703   0.63257966  0.017141154            0    0.6154385    1.6327461    2.2653257   -2.7269142 
 2035000     1.167668 -7.873702e-05   0.53661037 0.0095708282            0   0.52703955    1.7369061    2.2735165  -0.41404046 
 2040000    1.1310806 -7.7711644e-05   0.60848448  0.011235774            0    0.5972487    1.6824824    2.2909669  -0.36159055 
 2045000    1.1132893 0.00017352714   0.62864029  0.023002567            0   0.60563772    1.6560178    2.2846581    8.2077178 
 2050000    1.1294318 4.0266553e-05   0.61218691 0.0076051767            0   0.60458173    1.6800298    2.2922167    3.6666484 
 2055000    1.1727686 -0.00019256058   0.56426789  0.001416333            0   0.56285156    1.7444933    2.3087612   -4.2639732 
 2060000    1.1624198 8.0058841e-05   0.58835777 0.0099989603            0   0.57835881    1.7290994    2.3174572    5.0501323 
 2065000    1.1173001 4.5222572e-05   0.64086208  0.016843806            0   0.62401827    1.6619839     2.302846    3.8464431 
 2070000    1.1006234 -0.00010936341   0.65011905 0.0079866092            0   0.64213244    1.6371773    2.2872964   -1.4456415 
 2075000    1.1292398 -5.7329634e-05   0.61232371  0.010177973            0   0.60214573    1.6797442     2.292068   0.33521645 
 2080000    1.2013776 -7.9157855e-05   0.52519352  0.032176927            0   0.49301659    1.7870492    2.3122427  -0.38967871 
 2085000    1.1408097 8.0516403e-06   0.60372687  0.027394674            0    0.5763322    1.6969545    2.3006813    2.5755106 
 2090000    1.1472136 0.00020663075   0.56876941 0.0021928367            0   0.56657657    1.7064802    2.2752496    9.3282457 
 2095000    1.0936394 0.00014433697   0.65713779  0.010223374            0   0.64691441    1.6267886    2.2839264    7.2106282 
 2100000    1.1459897 0.00014417247   0.54641971  0.011657004            0    0.5347627    1.7046597    2.2510794    7.1721664 
 2105000    1.1782285 -4.1995331e-06   0.46670635 0.0040971993            0   0.46260915    1.7526149    2.2193213    2.0759772 
 2110000    1.0124661 -0.00019078393    0.7000593  0.013182017            0   0.68687728    1.5060434    2.2061027   -4.3059888 
 2115000    1.0375405 0.00011551797   0.66710015  0.013880834            0   0.65321932    1.5433415    2.2104416     6.153455 
 2120000    1.0569247 -0.00014639579   0.62318444  0.024642638            0   0.59854181    1.5721756      2.19536   -2.8016162 
 2125000    1.0681269 0.00011735359   0.59756927  0.037899447            0   0.55966982    1.5888388    2.1864081    6.1920772 
 2130000    1.0630092 0.00013068439   0.62695165  0.010422715            0   0.61652893    1.5812262    2.2081778    6.6688716 
 2135000    1.0407834 -5.9027361e-05   0.65406916  0.011274782            0   0.64279438    1.5481653    2.2022345   0.18743393 
 2140000    1.1011635 4.1734387e-05   0.56120937  0.010515739            0   0.55069363    1.6379807    2.1991901    3.6237238 
 2145000    1.0809439 -2.3380585e-05   0.58439116  0.013231663            0    0.5711595    1.6079041    2.1922952    1.3942379 
 2150000    1.0718261 -1.5227545e-05   0.62153203  0.039875597            0   0.58165643    1.5943413    2.2158733    1.6961064 
 2155000    1.1390505 2.9528705e-05   0.53570984  0.030520266            0   0.50518957    1.6943377    2.2300475    3.2379607 
 2160000    1.0505988 4.3794844e-05   0.64883559  0.063765733            0   0.58506985    1.5627658    2.2116014    3.7064654 
 2165000    1.1249838 3.2556787e-05   0.54925491   0.03930679            0   0.50994812    1.6734134    2.2226683      3.33394 
 2170000    1.0550171 -4.6433319e-05   0.63812277   0.03082654            0   0.60729623    1.5693379    2.2074607   0.62253672 
 2175000    1.0903965 -6.5639507e-05   0.56107608  0.022175113            0   0.53890096    1.6219648    2.1830409 -0.057454273 
 2180000    1.1247094 0.00014088565   0.50377255 0.0090844242            0   0.49468812    1.6730052    2.1767778    6.9856746 
 2185000    1.0288757 -9.1996938e-05   0.61934201 0.0079865143            0   0.61135549    1.5304526    2.1497946  -0.99036754 
 2190000     1.090555 -0.00010011012   0.52638841 0.0047691517            0   0.52161926    1.6222006     2.148589   -1.2685032 
 2195000    1.0356447 -5.2630932e-05   0.59925532   0.01392275            0   0.58533257    1.5405214    2.1397767   0.34330758 
 2200000    1.0270265 -5.8821436e-05   0.59425039   0.05873627            0   0.53551412    1.5277019    2.1219523   0.11418063 
 2205000    1.0687516 -3.6387912e-05   0.53176827  0.045835755            0   0.48593252    1.5897679    2.1215362   0.87949548 
 2210000    1.0618087 -8.3759012e-05   0.51642438  0.041492154            0   0.47493222    1.5794405    2.0958649  -0.76310944 
 2215000   0.99573429 3.6975235e-05   0.61485179  0.031883224            0   0.58296857    1.4811548    2.0960065    3.3580946 
 2220000    1.0106334 3.1709944e-05   0.55425612   0.01998371            0   0.53427242    1.5033172    2.0575734    3.1399395 
 2225000   0.92905437 -3.0495921e-05   0.67686152  0.040597175            0   0.63626434    1.3819684    2.0588299    1.0179025 
 2230000   0.99864513 -4.4322385e-05   0.56910794  0.022976065            0   0.54613187    1.4854846    2.0545926   0.54172183 
 2235000     1.041753 6.3465301e-05   0.51894338  0.014672687            0    0.5042707    1.5496076    2.0685509    4.2348332 
 2240000    1.0101734 0.00010954026   0.59843995  0.026099218            0   0.57234073    1.5026329    2.1010728    5.8400469 
 2245000   0.96395419 7.0775643e-05   0.66002374  0.017067236            0   0.64295651    1.4338819    2.0939056    4.5097142 
 2250000    1.0615612 8.6180514e-06   0.53643699  0.010268917            0   0.52616807    1.5790722    2.1155092     2.409672 
 2255000    1.0717151 -1.1026281e-05   0.51502959  0.013384754            0   0.50164484    1.5941763    2.1092058    1.7328421 
 2260000    1.0397881 -0.00021317117   0.58480324  0.011038201            0   0.57376504    1.5466848     2.131488   -5.1447545 
 2265000    1.0206975 -0.0001411602   0.62559102  0.012737227            0    0.6128538    1.5182876    2.1438786   -2.6743897 
 2270000    1.0801845 9.5376183e-05   0.52765598 0.0076487428            0   0.52000724    1.6067744    2.1344304    5.3899374 
 2275000   0.97508285 -7.5912055e-05   0.64731928  0.014849753            0   0.63246953    1.4504357     2.097755  -0.49337645 
 2280000      1.09798 8.7805997e-05   0.47637621  0.013060025            0   0.46331618    1.6332453    2.1096215    5.1067329 
 2285000    1.0051122 6.1087167e-05   0.59407881   0.01784157            0   0.57623724    1.4951044    2.0891832    4.1742918 
 2290000    1.0235128 1.6540191e-06   0.55582416 0.0089363171            0   0.54688784    1.5224753    2.0782995    2.1347567 
 2295000    1.0737159 -5.7203716e-05   0.48356265 0.00076374848            0    0.4827989    1.5971524     2.080715   0.12816154 
 2300000   0.98679559 -2.9544317e-05   0.61313804 0.00071202179            0   0.61242602    1.4678584    2.0809965    1.0725505 
 2305000   0.98460559 2.8883826e-05   0.58577183 0.00022016126            0   0.58555167    1.4646008    2.0503727    3.0362739 
 2310000    1.0438172 5.4415191e-06   0.49285602 0.0018578168            0    0.4909982    1.5526782    2.0455342    2.2312714 
 2315000    1.0126811 -2.6513069e-05   0.51276245 0.0096171958            0   0.50314525    1.5063632    2.0191256    1.1141462 
 2320000    1.0032983 -2.9111686e-05   0.54219312  0.013817577            0   0.52837554    1.4924062    2.0345993    1.0409204 
 2325000    1.0099938 -9.0171865e-05   0.53502221  0.015439821            0   0.51958239    1.5023658     2.037388   -1.0404783 
 2330000   0.99829459 -0.00022721166   0.55038402  0.011461449            0   0.53892257    1.4849632    2.0353472    -5.720144 
 2335000   0.98015155 -1.5098836e-05   0.54691167 0.0088846787            0     0.538027    1.4579754    2.0048871    1.4895135 
 2340000   0.95360306 0.00022921155   0.58667068  0.018219644            0   0.56845103    1.4184845    2.0051552    9.8289094 
 2345000   0.92152765 -3.4815092e-05   0.64870148  0.022950186            0   0.62575129    1.3707724    2.0194739   0.83111871 
 2350000    1.0251478 -6.6324606e-05   0.48568793  0.018239863            0   0.46744806    1.5249073    2.0105953  -0.25328462 
 2355000   0.94975573 0.00014805081   0.57717773 0.0060568594            0   0.57112087    1.4127617    1.9899394    7.0434072 
 2360000   0.93952097 -6.5073685e-05   0.59098175 0.0060586936            0   0.58492306    1.3975374    1.9885192  -0.23266257 
 2365000   0.90294362 -0.00017055149   0.63351131  0.022987102            0   0.61052421    1.3431286    1.9766399   -3.8448511 
 2370000   0.96382856 0.00021189566   0.51790116  0.035911587            0   0.48198957     1.433695    1.9515961    9.1843013 
 2375000    1.0227084 3.4464412e-05   0.42981368  0.020428802            0   0.40938488    1.5212787    1.9510924    3.1274776 
 2380000   0.90721802 -0.00022865452   0.57008823  0.010431227            0     0.559657    1.3494868     1.919575   -5.8851659 
 2385000   0.89143224 -4.000785e-05   0.57201373  0.009520454            0   0.56249328    1.3260055    1.8980192   0.53241792 
 2390000    1.0159226 -2.2359144e-05   0.38780449  0.017573835            0   0.37023066    1.5111848    1.8989893    1.1357972 
 2395000   0.90686295 1.0062289e-05   0.55825836  0.014486068            0   0.54377229    1.3489586     1.907217    2.2506764 
 2400000   0.92370802 0.00018663392   0.52878974 0.0030070619            0   0.52578268    1.3740157    1.9028054    8.2732433 
 2405000    0.9115081 0.0002822947    0.5576171  0.025912754            0   0.53170434    1.3558683    1.9134854    11.549145 
 2410000   0.93608334 8.5859864e-05   0.54089795  0.041353768            0   0.49954418     1.392424    1.9333219    4.8640053 
 2415000   0.93173571 -2.2597831e-05   0.53936788  0.013424652            0   0.52594323    1.3859569    1.9253247    1.1539854 
 2420000   0.94239674 -0.00010010949   0.51245524 0.0063312368            0     0.506124    1.4018152    1.9142704   -1.5028002 
 2425000   0.95508559 -5.1600626e-05   0.49771565  0.014338762            0   0.48337689    1.4206898    1.9184055   0.15710412 
 2430000   0.93594315 -4.4530912e-05   0.52036321  0.027154949            0   0.49320826    1.3922154    1.9125786   0.39259019 
 2435000   0.94611835 7.9991991e-05   0.50269677   0.02443707            0    0.4782597    1.4073511    1.9100478    4.6404411 
 2440000   0.94067057 9.4137761e-05   0.51721607   0.01344663            0   0.50376944    1.3992475    1.9164635    5.1296991 
 2445000   0.99792291 -5.1579504e-05   0.43350562  0.013851243            0   0.41965438    1.4844103     1.917916   0.15733556 
 2450000   0.95069111 -7.1711829e-05   0.50990275  0.016696521            0   0.49320623     1.414153    1.9240558  -0.52370798 
 2455000   0.95874644 -1.6369364e-05   0.47686846  0.015751111            0   0.46111734    1.4261353    1.9030038    1.3442628 
 2460000   0.98922257 0.00012902685   0.44236787    0.0213666            0   0.42100127    1.4714686    1.9138364    6.3179531 
 2465000    0.9331367 0.00023096643    0.5468577  0.022265357            0   0.52459234    1.3880408    1.9348985    9.8185528 
 2470000   0.93137614 7.7626555e-06   0.52246261 0.0094443998            0   0.51301821     1.385422    1.9078846    2.1728499 
 2475000   0.94834085 -0.0001765727   0.49752056 0.0079528053            0   0.48956776     1.410657    1.9081776   -4.1188372 
 2480000   0.96463906 -0.00016290654   0.48284427  0.018722121            0   0.46412215    1.4349006    1.9177449   -3.6427982 
 2485000   0.90890551 -3.724125e-05   0.56192162  0.048818762            0   0.51310285    1.3519969    1.9139186   0.64275055 
 2490000   0.94342806 -3.7113513e-05   0.50633453  0.013597855            0   0.49273667    1.4033492    1.9096838   0.64287586 
 2495000    0.9162866 -6.3145667e-05   0.53880495  0.018884462            0   0.51992049    1.3629763    1.9017813  -0.25359082 
 2500000   0.96322941 2.6260895e-05   0.47574882  0.022644436            0   0.45310438    1.4328038    1.9085526    2.8049245 
 2505000   0.98107847 -1.5873587e-05   0.47555263  0.010235684            0   0.46531695    1.4593542    1.9349069    1.3930884 
 2510000   0.99856933 -6.0347764e-05     0.432463 0.00048569255            0   0.43197731    1.4853719    1.9178349  -0.14203547 
 2515000   0.96642719 -5.736881e-05   0.50472668 4.071179e-05            0   0.50468597    1.4375604    1.9422871 -0.015901598 
 2520000   0.95257211 -8.7566706e-05   0.53861901 0.00020278271            0   0.53841623     1.416951      1.95557   -1.0333735 
 2525000   0.93756485 -3.445388e-05   0.54752905 0.00071615649            0   0.54681289    1.3946277    1.9421568   0.76613097 
 2530000    1.0175472 5.4205891e-05   0.42409113   0.01274995            0   0.41134118    1.5136015    1.9376926    3.7879203 
 2535000   0.92675846 3.6653352e-05   0.54205799  0.018869893            0    0.5231881    1.3785532    1.9206112    3.1717123 
 2540000   0.94167794 3.3660583e-06   0.53060433  0.039310522            0   0.49129381    1.4007459    1.9313503    2.0462451 
 2545000   0.94130605 9.9383164e-05   0.52610636  0.019449698            0   0.50665667    1.4001927    1.9262991    5.3185778 
 2550000   0.97594939 4.8760429e-05   0.49213351 0.0075655781            0   0.48456794    1.4517247    1.9438582    3.6082142 
 2555000   0.92107378 -0.000202118   0.56842621 0.0011010265            0   0.56732519    1.3700972    1.9385235   -4.9604377 
 2560000    1.0048362 -5.5706652e-05    0.4529162 0.00015091271            0   0.45276529    1.4946938      1.94761  0.046156313 
 2565000   0.99470783 1.9329423e-05   0.45375558 0.0044835793            0     0.449272    1.4796279    1.9333835    2.5931611 
 2570000   0.96597371 1.3813602e-05   0.50235515  0.012221138            0   0.49013402    1.4368859    1.9392411    2.4107453 
 2575000   0.96876045 3.1253673e-05   0.49394324 0.0069308067            0   0.48701243    1.4410312    1.9349744    3.0017664 
 2580000   0.95925539 9.445804e-05    0.4753963  0.020191425            0   0.45520487    1.4268924    1.9022887    5.1264565 
 2585000   0.99391744 4.8580103e-05   0.43630028  0.020800081            0    0.4155002    1.4784522    1.9147525    3.5729533 
 2590000   0.94359878 7.9105776e-05    0.4825429  0.016907173            0   0.46563573    1.4036032    1.8861461    4.5862899 
 2595000    0.9521343 0.00010546114   0.48082086 0.0095240977            0   0.47129677    1.4162998    1.8971206    5.4968609 
 2600000   0.97624135 3.441534e-05   0.45196625  0.016642785            0   0.43532347     1.452159    1.9041253    3.0788355 
 2605000   0.93711994 3.3135914e-05   0.50065317  0.048002635            0   0.45265054    1.3939659    1.8946191    3.0256583 
 2610000    0.9301054 -6.6700893e-05   0.52234638  0.029441251            0   0.49290512    1.3835318    1.9058782  -0.37084565 
 2615000   0.90843548 -9.5866132e-05     0.552144  0.026852573            0   0.52529143    1.3512978    1.9034418   -1.3687889 
 2620000   0.98558655 6.9716444e-05   0.43814681  0.041034538            0   0.39711227      1.46606    1.9042068    4.2838614 
 2625000   0.94300013 0.0001120972   0.48545286  0.013170716            0   0.47228214    1.4027127    1.8881656    5.7144168 
 2630000   0.92078905 -9.4124981e-05   0.51570462  0.024253002            0   0.49145162    1.3696737    1.8853783    -1.327421 
 2635000    0.9235642 -8.1973672e-05   0.48626336 0.0055455188            0   0.48071784    1.3738017    1.8600651  -0.93796957 
 2640000   0.94799598 2.6736624e-06   0.43975586 0.0057271505            0   0.43402871     1.410144    1.8498999    1.9411609 
 2645000   0.85817811 -7.263706e-05   0.58452007  0.028145219            0   0.55637486    1.2765399      1.86106  -0.61828496 
 2650000   0.93408845 -8.2007324e-06   0.45767149  0.025947968            0   0.43172352    1.3894566    1.8471281    1.5672097 
 2655000   0.91088169 -5.9282219e-05   0.49400326  0.020531891            0   0.47347137    1.3549365    1.8489398  -0.17455997 
 2660000    0.9304362 -9.3723626e-05   0.45145048  0.021095914            0   0.43035457    1.3840239    1.8354743   -1.3636254 
 2665000   0.92579134 5.4197119e-05   0.46853894  0.028346866            0   0.44019208    1.3771146    1.8456536    3.6955819 
 2670000   0.89645335 0.00017671268   0.52726428  0.039320324            0   0.48794396    1.3334744    1.8607386    7.8925314 
 2675000   0.90785246 6.7295578e-05   0.48383786  0.021893016            0   0.46194485    1.3504305    1.8342684    4.1312908 
 2680000   0.95695612 -0.00016242709   0.41329319 0.0045322036            0   0.40876098    1.4234722    1.8367654   -3.7074125 
 2685000   0.94052021 -0.00020057796   0.46984671 0.00085119461            0   0.46899551    1.3990238    1.8688705   -4.9775237 
 2690000   0.96106213 4.4611247e-06   0.45120812 0.0057602444            0   0.44544787    1.4295799     1.880788    2.0330611 
 2695000   0.99061482 9.4726489e-05   0.39091953 0.0037748468            0   0.38714468    1.4735395    1.8644591    5.0977899 
 2700000   0.95249503 2.1299774e-05   0.43223176 0.00054401128            0   0.43168774    1.4168364    1.8490681    2.5761004 
 2705000   0.92900351 6.1131061e-06   0.48381368  0.014783379            0    0.4690303    1.3818927    1.8657064    2.0743671 
 2710000   0.96867969 4.3464141e-05   0.42904577  0.027734372            0    0.4013114     1.440911    1.8699568    3.3535328 
 2715000   0.90807994 5.597149e-05   0.54063684  0.018120199            0   0.52251664    1.3507689    1.8914058    3.8018993 
 2720000   0.89608637 -7.1140764e-05   0.54968925  0.016448859            0   0.53324039    1.3329285    1.8826177  -0.54565367 
 2725000   0.94370208 7.6137289e-06   0.47365271   0.01724314            0   0.45640957    1.4037569    1.8774096    2.1372915 
 2730000   0.96689914 1.7917803e-06   0.43515146   0.02036981            0   0.41478165    1.4382625    1.8734139    1.9345734 
 2735000    0.9330199 -8.6057319e-05   0.46909902 0.0011019633            0   0.46799706    1.3878671    1.8569661    -1.080457 
 2740000   0.92458696 -0.00010516904   0.48835573 0.0016638814            0   0.48669184    1.3753231    1.8636788   -1.7260911 
 2745000   0.89446131 -0.00010749642   0.51245313  0.021765794            0   0.49068734    1.3305112    1.8429643   -1.8262467 
 2750000   0.88408477 2.0509916e-05   0.54412809  0.086686844            0   0.45744125    1.3150761    1.8592042     2.559276 
 2755000   0.91343961 -0.00014525971   0.51291345  0.026104564            0   0.48680888    1.3587414    1.8716549   -3.0865432 
 2760000   0.97009944 -8.3289383e-05     0.449429 0.0099250874            0   0.43950391    1.4430229    1.8924519  -0.95049236 
 2765000   0.97865356 6.2991366e-05   0.40380445  0.014489277            0   0.38931517    1.4557472    1.8595516    4.0096569 
 2770000   0.92489564 -3.82726e-06   0.45862681 0.0068844049            0    0.4517424    1.3757823    1.8344091    1.7037719 
 2775000   0.91352515 0.00011745391   0.49695949   0.03241285            0   0.46454664    1.3588687    1.8558281    5.8649215 
 2780000   0.93153049 0.00013081449   0.46536267   0.02374794            0   0.44161473    1.3856516    1.8510143    6.3161488 
 2785000   0.92793571 0.00012759778   0.47416865  0.044898703            0   0.42926994    1.3803044     1.854473    6.2098104 
 2790000    0.8500188 -4.3830259e-05   0.60728998  0.034045822            0   0.57324416     1.264403    1.8716929   0.37562009 
 2795000   0.93153743 -6.7450284e-05   0.49967484  0.021265071            0   0.47840977    1.3856619    1.8853368  -0.41696628 
 2800000    1.0066058 -7.7621933e-06   0.39997555  0.011781791            0   0.38819375    1.4973262    1.8973017    1.6323522 
 2805000    0.9030821 -0.00012726436   0.56236372 0.0091977338            0   0.55316599    1.3433346    1.9056983   -2.4382584 
 2810000   0.97034594 -9.5699421e-05   0.47595484 0.0033912079            0   0.47256363    1.4433896    1.9193444   -1.3471958 
 2815000   0.95029875 6.9897425e-05   0.51018058 0.00031240431            0   0.50986817    1.4135694      1.92375    4.3095821 
 2820000   0.93105725 -4.87137e-05   0.54170737  0.001415468            0    0.5402919    1.3849477     1.926655   0.26389408 
 2825000   0.96892456 7.0646232e-05   0.47814305 0.0028558941            0   0.47528716    1.4412753    1.9194183    4.3308097 
 2830000   0.98141821 0.00011905332   0.48661475  0.011912834            0   0.47470192    1.4598596    1.9464743     6.010161 
 2835000   0.96420753 2.685373e-05   0.49150113   0.01966863            0    0.4718325    1.4342587    1.9257598    2.8423672 
 2840000   0.91294495 -2.205522e-05   0.56023172 0.0051396465            0   0.55509207    1.3580056    1.9182373    1.1654191 
 2845000   0.97878304 -1.5675854e-05   0.48814421 0.0030352548            0   0.48510896    1.4559398     1.944084    1.4090149 
 2850000   0.99748835 8.2604168e-05   0.45215125  0.011004852            0   0.44114639    1.4837639    1.9359152    4.7554708 
 2855000   0.91118974 -9.4346789e-05   0.56815614  0.017570318            0   0.55058582    1.3553947    1.9235509   -1.2968195 
 2860000   0.99815974 4.3908092e-05   0.43581525 0.0038948261            0   0.43192043    1.4847626    1.9205779    3.4193074 
 2865000   0.95047666 -6.8819622e-05   0.49066208 0.0084160613            0   0.48224602     1.413834    1.9044961  -0.44454697 
 2870000   0.89444967 -0.00013382445   0.59065805  0.010901805            0   0.57975624    1.3304939    1.9211519   -2.6467225 
 2875000   0.97604992 7.1542528e-05    0.4669203  0.012749511            0   0.45417079    1.4518742    1.9187946    4.3607795 
 2880000   0.91124005 0.00010898355   0.54560767  0.021109729            0   0.52449794    1.3554696    1.9010772     5.621049 
 2885000   0.96573378 0.00015271089   0.46255221  0.020460662            0   0.44209155     1.436529    1.8990812    7.1116128 
 2890000   0.93401029 4.7466125e-05   0.52034975 0.0071043268            0   0.51324543    1.3893403    1.9096901    3.5298671 
 2895000   0.94439877 -4.7214575e-05   0.48464718  0.012278986            0    0.4723682    1.4047932    1.8894404   0.27784955 
 2900000   0.96509457 -8.1651442e-05   0.45205546  0.013743339            0   0.43831212    1.4355782    1.8876336  -0.89940225 
 2905000   0.91172098 -1.417536e-05   0.53519866  0.013851643            0   0.52134702     1.356185    1.8913836    1.4075313 
 2910000   0.88491258 9.7878723e-05   0.58248985  0.021566505            0   0.56092335    1.3163075    1.8987973    5.2397244 
 2915000   0.95266212 9.9593409e-05   0.48879284  0.023868032            0   0.46492481    1.4170849    1.9058778    5.3053328 
 2920000   0.92945489 -9.3143237e-05   0.54387448  0.035978333            0   0.50789615    1.3825641    1.9264386   -1.2528505 
 2925000   0.96996751 1.7440719e-05   0.47265789  0.010324876            0   0.46233302    1.4428267    1.9154846    2.5107944 
 2930000   0.94891958 7.5713011e-05   0.53532815 0.0061400893            0   0.52918806    1.4115179     1.946846    4.5311835 
 2935000    1.0043874 2.862834e-05   0.45509669  0.014423641            0   0.44067305    1.4940263     1.949123    2.9263036 
 2940000   0.94806863 -0.0001247619   0.55841579  0.025036746            0   0.53337904    1.4102521    1.9686679   -2.2898717 
 2945000   0.96908134 -2.9225322e-05   0.54045021  0.013319142            0   0.52713107    1.4415085    1.9819587   0.98440103 
 2950000   0.93014441 -2.4090276e-05   0.59314372  0.006341498            0   0.58680222    1.3835898    1.9767335    1.1544521 
 2955000   0.94014569 -0.0001397706    0.5951162 0.0090676909            0   0.58604851    1.3984667    1.9935829   -2.7772537 
 2960000    0.9749735 -9.6143377e-05   0.55271335  0.017460678            0   0.53525267    1.4502731    2.0029864   -1.2787075 
 2965000   0.95457397 3.8287283e-05   0.59700061  0.018806995            0   0.57819362    1.4199288    2.0169294     3.323802 
 2970000    1.0089979 6.098504e-05   0.51548059  0.010237453            0   0.50524314    1.5008844     2.016365    4.0979876 
 2975000   0.93041268 -5.7088031e-05   0.61468498  0.016702809            0   0.59798218    1.3839889    1.9986738  0.050069049 
 2980000   0.98851338 -1.033408e-05   0.53594298  0.011012275            0    0.5249307    1.4704137    2.0063566      1.65362 
 2985000   0.97051925 -5.5841803e-05   0.57066727 0.0098057344            0   0.56086154    1.4436474    2.0143147    0.1082478 
 2990000   0.96282093 4.7791855e-05   0.57698604  0.027508752            0   0.54947729    1.4321961    2.0091822    3.6404775 
 2995000   0.94837046 7.8007384e-05   0.58251287  0.028175228            0   0.55433764    1.4107011    1.9932139     4.655866 
[...]
19285000   0.92544393 -6.3562728e-05   0.52018901 0.0068169863            0   0.51337203    1.3765978    1.8967869  -0.27282091 
19290000   0.99290541 -9.2710338e-05   0.43223398 0.0097214424            0   0.42251254    1.4769468    1.9091808   -1.2553321 
19295000    1.0055614 -0.00010717392   0.40169213  0.026659226            0    0.3750329    1.4957725    1.8974647   -1.7607385 
19300000   0.95482291 1.5993499e-05   0.48361294  0.031589846            0   0.45202309    1.4202991     1.903912    2.4498234 
19305000   0.89256929 1.8564367e-05   0.58227425  0.033376749            0    0.5488975    1.3276968    1.9099711    2.5436348 
19310000   0.91022027 4.6249625e-05   0.57464808  0.038110917            0   0.53653716    1.3539526    1.9286007    3.5072546 
19315000   0.95758521 8.202882e-05   0.50855057  0.014402847            0   0.49414772     1.424408    1.9329586    4.7328756 
19320000   0.98725114 5.0938504e-05   0.47135349  0.015786372            0   0.45556712    1.4685361    1.9398896    3.6785905 
19325000   0.94217893 5.3885562e-05   0.53713799 0.0082976949            0    0.5288403    1.4014912    1.9386292     3.777923 
19330000   0.95211849 -4.545469e-05   0.53202994 0.0098644234            0   0.52216552    1.4162763    1.9483062   0.39678611 
19335000    1.0155959 -0.00011167961   0.46048585 0.0071396847            0   0.45334617    1.5106989    1.9711848   -1.8408127 
19340000   0.98607545 8.7020447e-05   0.51503843 0.0055279544            0   0.50951048    1.4667872    1.9818257    4.9521236 
19345000    1.0277126 0.00016723916   0.46088016 0.0060323681            0   0.45484779    1.5287226    1.9896027    7.6980328 
19350000    1.0604539 9.7437024e-05   0.40838917  0.010448132            0   0.39794104    1.5774252    1.9858144    5.3116648 
19355000    1.0044719 8.5584273e-05   0.50198241  0.017570661            0   0.48441175     1.494152    1.9961344    4.9174109 
19360000   0.93430199 -3.4650291e-05   0.58943036  0.030009519            0   0.55942084    1.3897742    1.9792046   0.79647463 
19365000   0.98440327 -0.00016967837   0.53582028  0.029840872            0    0.5059794    1.4642999    2.0001201   -3.7915683 
19370000    1.0118249 -9.7105622e-05   0.49831909  0.014325678            0   0.48399342    1.5050896    2.0034087   -1.3111299 
19375000   0.96644106 3.6223664e-06   0.57775976  0.011367497            0   0.56639227    1.4375811    2.0153408    2.1389843 
19380000   0.92911095 7.8927497e-05   0.64897432  0.023229749            0   0.62574457    1.3820525    2.0310269    4.7250854 
19385000    1.0222022 0.00013257689   0.51181081  0.031431364            0   0.48037945    1.5205258    2.0323366    6.5576279 
19390000   0.99060812 -5.3472503e-05   0.52836369    0.0301308            0   0.49823289    1.4735296    2.0018933   0.17669852 
19395000    0.9692326 -0.00011214354   0.58388962  0.033254908            0   0.55063471    1.4417335    2.0256231   -1.8022098 
19400000   0.94535622 5.7313544e-05   0.61088845  0.026954424            0   0.58393403    1.4062174    2.0171058    3.9734081 
19405000    1.0536091 0.00012514568   0.42872045  0.030791473            0   0.39792898    1.5672435     1.995964    6.2676032 
19410000    1.0123891 0.00019870636    0.4907997  0.020603568            0   0.47019613    1.5059288    1.9967285    8.7792388 
19415000   0.99200728 0.0002331425   0.53553852  0.017858817            0    0.5176797    1.4756108    2.0111494      9.96908 
19420000    1.0625488 5.0679196e-05   0.41839373   0.04799634            0   0.37039739    1.5805414    1.9989351     3.728785 
19425000   0.91598511 -3.1483978e-05   0.61862647   0.05334104            0   0.56528543    1.3625278    1.9811543   0.90650121 
19430000   0.96820661 4.3750766e-05   0.53154077  0.032293456            0   0.49924732    1.4402073    1.9717481    3.4651076 
19435000   0.93220045 -3.4147253e-05   0.59172091   0.05352925            0   0.53819166    1.3866482    1.9783691    0.8128095 
19440000    0.9627891 -3.1965007e-05   0.53291719  0.042159662            0   0.49075752    1.4321488     1.965066   0.87399372 
19445000   0.98037237 -2.2810093e-05   0.50687459  0.023157122            0   0.48371747    1.4583039    1.9651785     1.186594 
19450000   0.99311968 -6.0889348e-05   0.49071696  0.023755571            0   0.46696139    1.4772655    1.9679825  -0.11037393 
19455000   0.98531912 -6.3586386e-05   0.49078796  0.020102948            0   0.47068501    1.4656622    1.9564501  -0.21396515 
19460000   0.93665693 -8.5344954e-06     0.535109  0.034162559            0   0.50094644    1.3932772    1.9283862    1.6370754 
19465000   0.98338406 1.7510031e-05   0.48217895  0.032493972            0   0.44968498    1.4627838    1.9449627    2.5426385 
19470000   0.97924453 -0.0001162196   0.48636153  0.036034688            0   0.45032684    1.4566262    1.9429878   -2.0239747 
19475000    1.0085562 2.3116312e-06   0.44376676  0.018460567            0   0.42530619    1.5002274    1.9439941    2.0228978 
19480000   0.98488779 1.9061626e-05   0.49752955  0.023292559            0   0.47423699    1.4650206    1.9625501     2.613187 
19485000   0.93373547 -7.637851e-05   0.56486164  0.014328803            0   0.55053283    1.3889315    1.9537932     -0.65326 
19490000   0.98770562 -7.8516847e-06   0.47852942  0.024175879            0   0.45435354    1.4692121    1.9477415    1.6797374 
19495000   0.97050709 6.1419994e-05   0.49344096  0.017045074            0   0.47639588    1.4436293    1.9370702    4.0335394 
19500000   0.94743491 8.3435885e-05   0.53247679 0.0069085653            0   0.52556823    1.4093094    1.9417862    4.7897311 
19505000   0.98338213 3.8326637e-05   0.46179646  0.017674173            0   0.44412228    1.4627809    1.9245774    3.2327933 
19510000   0.95264601 -0.00013694395    0.4985934  0.031266091            0   0.46732731    1.4170609    1.9156543    -2.758699 
19515000   0.94369255 -6.8140289e-05   0.50416697 0.0066215296            0   0.49754544    1.4037427    1.9079096  -0.41794555 
19520000   0.94284787 7.548288e-05   0.50024182 0.0023798333            0   0.49786198    1.4024862     1.902728    4.4792103 
19525000   0.91498907 5.0543238e-05   0.54378534  0.020141826            0   0.52364351    1.3610462    1.9048316    3.6300408 
19530000   0.94617489 -6.1424696e-05   0.51371002  0.040740081            0   0.47296994    1.4074351    1.9211452  -0.17548446 
19535000   0.90165658 -4.8350705e-05   0.59321188  0.024687616            0   0.56852427    1.3412142     1.934426   0.28405532 
19540000   0.89380582 0.00010658049   0.61731357 0.0084206574            0   0.60889291    1.3295362    1.9468497     5.584797 
19545000   0.93069716 3.0062184e-05   0.55410106   0.01529773            0   0.53880333     1.384412    1.9385131    2.9646356 
19550000   0.97997604 4.3401033e-05   0.48410734  0.030932009            0   0.45317533    1.4577144    1.9418217    3.4232436 
19555000   0.96166732 4.4048885e-05   0.51868616  0.038360685            0   0.48032547    1.4304801    1.9491663    3.4527016 
19560000   0.91668201 2.132974e-05   0.58411496    0.0293984            0   0.55471656    1.3635645    1.9476794    2.6757346 
19565000   0.99820371 -6.0525289e-05   0.47713239   0.01367093            0   0.46346146     1.484828    1.9619604  -0.10396943 
19570000    1.0075712 9.4796535e-06    0.4554708  0.011510644            0   0.44396016    1.4987622     1.954233    2.2778052 
19575000    1.0250188 9.5838532e-05   0.43731127 0.0026755654            0    0.4346357    1.5247154    1.9620267    5.2333153 
19580000   0.97651856 -0.00013364061   0.50189578 0.0020362144            0   0.49985957    1.4525714    1.9544671   -2.6071325 
19585000   0.94948516 -0.00019245917    0.5242115  0.016825376            0   0.50738613    1.4123592    1.9365707   -4.6327022 
19590000   0.98405468 -2.8308221e-06   0.48073771  0.041081635            0   0.43965608    1.4637813    1.9445191    1.8478937 
19595000   0.94869014 4.3879789e-05   0.54055189  0.043681417            0   0.49687047    1.4111766    1.9517285    3.4494919 
19600000    1.0008715 -8.7164203e-05   0.45470548  0.030958418            0   0.42374706    1.4887963    1.9435018    -1.031703 
19605000   0.99807609 2.2900654e-05   0.47361917  0.011700361            0    0.4619188    1.4846382    1.9582574     2.739933 
19610000    1.0155378 0.00015993581   0.48944175  0.017471115            0   0.47197064    1.5106124    2.0000542    7.4591964 
19615000   0.95882842 -2.0674124e-05   0.55977153   0.01101003            0   0.54876149    1.4262573    1.9860288     1.280352 
19620000   0.99848619 -0.0002179442   0.50039541  0.044706126            0   0.45568929    1.4852482    1.9856436   -5.4535185 
19625000   0.94139136 -0.00020682453   0.59227977  0.036293413            0   0.55598636    1.4003196    1.9925994   -5.0670111 
19630000   0.99866876 -8.1650163e-05   0.52169401  0.020625836            0   0.50106818    1.4855198    2.0072138  -0.77977845 
19635000    1.0432747 -1.8650386e-05   0.47820963  0.020745072            0   0.45746455    1.5518711    2.0300807    1.3934809 
19640000    1.0555848 5.9937182e-06   0.45475056  0.025075979            0   0.42967458    1.5701823    2.0249329    2.2295185 
19645000    1.0358149 0.00010039931   0.50044963  0.044450087            0   0.45599954    1.5407747    2.0412243    5.4681876 
19650000    1.0328336 0.00012287784   0.49654179  0.033973681            0   0.46256811    1.5363399    2.0328817    6.2271122 
19655000     1.028043 3.2219433e-05   0.50840616  0.038939953            0   0.46946621     1.529214    2.0376201    3.1373768 
19660000    1.0467513 -2.5228389e-05   0.47192132  0.019898382            0   0.45202294    1.5570425    2.0289638    1.1678348 
19665000   0.98116806 -0.00013458905   0.58781303  0.031349704            0   0.55646332    1.4594875    2.0473005   -2.5466723 
19670000    1.0371354 -0.0001496669   0.47662803  0.025574008            0   0.45105402    1.5427389    2.0193669   -3.0892633 
19675000    1.0154564 6.2992763e-06   0.51847624  0.018841992            0   0.49963425    1.5104914    2.0289676    2.2439829 
19680000    1.0395318 0.00016066805   0.46513263  0.035576588            0   0.42955604    1.5463035    2.0114362    7.4955722 
19685000   0.95110805 2.4523643e-05   0.58935245  0.053685516            0   0.53566694    1.4147732    2.0041257    2.8411994 
19690000     1.026215 -0.00010779629   0.49752412  0.035837861            0   0.46168626    1.5264947    2.0240189   -1.6554278 
19695000   0.96291898 8.2202563e-05   0.59788792  0.071110142            0   0.52677777     1.432342    2.0302299    4.8360774 
19700000    1.0551991 2.4751683e-05   0.46590401  0.020857558            0   0.44504645    1.5696087    2.0355127    2.8803701 
19705000     1.013629 -4.9429765e-05   0.54155435  0.026795122            0   0.51475922    1.5077731    2.0493275   0.36212483 
19710000   0.99371134 5.0012578e-05   0.58362045  0.031483153            0    0.5521373    1.4781456    2.0617661    3.7688621 
19715000    1.0401559 1.6189923e-05   0.50328745  0.061076462            0   0.44221099    1.5472319    2.0505193    2.6031354 
19720000    1.0363785 -6.7840618e-05   0.49071027  0.020835848            0   0.46987443     1.541613    2.0323233   -0.2833031 
19725000   0.99844051 -6.7921812e-05   0.53072207  0.010179542            0   0.52054253    1.4851803    2.0159023   -0.3024955 
19730000    1.0700623 -9.2157206e-05   0.41238154  0.010691383            0   0.40169016    1.5917176    2.0040992   -1.1415335 
19735000     1.050275 -1.6577877e-05   0.42953861 0.0025667077            0    0.4269719    1.5622841    1.9918227    1.4259645 
19740000    1.0809092 2.4152623e-05   0.38983067  0.014190827            0   0.37563984    1.6078525    1.9976831    2.8220927 
19745000    1.0295898 -8.7731839e-05   0.46029436  0.033156061            0   0.42713829    1.5315148    1.9918092   -1.0027709 
19750000   0.96570722 -8.3295684e-05   0.57850754  0.043401896            0   0.53510565    1.4364895     2.014997   -0.8281623 
19755000   0.99638924 8.9835465e-05   0.55214131    0.0412774            0   0.51086391     1.482129    2.0342703    5.1006542 
19760000    1.0811663 0.00011084843   0.42953086  0.035606104            0   0.39392475    1.6082348    2.0377657     5.821392 
19765000    1.0303456 2.4397115e-05   0.51784644  0.023435982            0   0.49441046    1.5326391    2.0504855    2.8832404 
19770000    1.0532842 -5.1481557e-05   0.49097933  0.008646112            0   0.48233322    1.5667602    2.0577395    0.3005024 
19775000    1.0526099 -2.7301903e-05   0.47600199  0.012504341            0   0.46349765    1.5657573    2.0417593    1.1098543 
19780000    1.0240644 0.00020396944   0.51271872  0.032963955            0   0.47975476    1.5232958    2.0360145    8.9981713 
19785000    1.0073753 0.00014461238    0.5260171  0.039268028            0   0.48674907    1.4984708    2.0244879    6.9605906 
19790000    1.0377404 -5.7785732e-05   0.48927201  0.011402227            0   0.47786978    1.5436389    2.0329109  0.060491258 
19795000    1.0080997 -3.2822704e-05   0.53741183   0.01280256            0   0.52460927    1.4995483    2.0369601   0.91661181 
19800000    1.0656469 -4.4426392e-05   0.44867591 0.0090801405            0   0.43959577    1.5851498    2.0338257   0.51740482 
19805000    1.0125477 3.3123551e-05    0.4962926  0.016231725            0   0.48006087    1.5061647    2.0024573    3.1330745 
19810000    1.0172805 9.1581653e-05   0.48846643  0.014223195            0   0.47424324    1.5132048    2.0016712    5.1276583 
19815000    1.0289502 1.0635846e-05   0.47441969  0.007809886            0    0.4666098    1.5305634    2.0049831    2.3680199 
19820000    1.0157317 -8.416762e-05   0.46857446     0.017631            0   0.45094346     1.510901    1.9794754    -0.893446 
19825000    1.0145728 1.9619395e-06   0.48140052  0.023971051            0   0.45742947     1.509177    1.9905775     2.057545 
19830000    1.0332598 9.2110705e-06   0.47421103  0.013959303            0   0.46025173     1.536974     2.011185    2.3255896 
19835000    1.0339851 -0.00011480861   0.45800848  0.010058429            0   0.44795005    1.5380528    1.9960613   -1.9227393 
19840000    1.0305202 -2.7603486e-05    0.4598622  0.016552226            0   0.44330998    1.5328989    1.9927611    1.0505621 
19845000    1.0479695 2.2118868e-05   0.45922859  0.019430035            0   0.43979855    1.5588546    2.0180832    2.7730739 
19850000    1.0319637 6.0353456e-05   0.48004664    0.0351105            0   0.44493614    1.5350461    2.0150927    4.0751574 
19855000    1.0356183 -3.0835227e-06   0.47647388  0.046803574            0    0.4296703    1.5404822     2.016956    1.9117051 
19860000    1.0701631 4.208726e-05    0.4248847  0.034393112            0   0.39049159    1.5918676    2.0167522    3.4533307 
19865000   0.98922678 9.5186076e-06   0.55336048  0.033935455            0   0.51942503    1.4714748    2.0248353    2.3497371 
19870000    1.0660172 -0.00012627155   0.44901286  0.029703567            0   0.41930929    1.5857006    2.0347135   -2.2753555 
19875000     1.029893 -0.00023382976   0.49226942  0.018430648            0   0.47383877    1.5319658    2.0242353   -5.9571537 
19880000    1.0438404 -4.2516135e-06   0.48372736  0.050305964            0    0.4334214    1.5527127      2.03644    1.8913183 
19885000    1.0302734 0.00011465192   0.51672973  0.034316623            0   0.48241311    1.5325317    2.0492614    5.9627135 
19890000    1.0717548 6.9505481e-05   0.47484695  0.032874243            0   0.44197271    1.5942353    2.0690823     4.441536 
19895000    1.0803095 4.9194611e-05   0.47362559  0.016253955            0   0.45737164    1.6069604     2.080586     3.759762 
19900000     1.098056 5.0646157e-05   0.44536609  0.025493756            0   0.41987234    1.6333584    2.0787244    3.8074466 
19905000    1.0647878 4.5647773e-05   0.49088636  0.044855882            0   0.44603048    1.5838719    2.0747583    3.6328689 
19910000      1.04033 -2.7090417e-07   0.51151974  0.014843868            0   0.49667587    1.5474908    2.0590106    2.0497637 
19915000    1.0935033 -3.8487757e-05   0.44901153 0.0095469472            0   0.43946458    1.6265862    2.0755978   0.76188233 
19920000    1.0679176 -5.9924441e-05   0.50292364  0.022678935            0   0.48024471    1.5885274    2.0914511  0.046030136 
19925000    1.0164198 6.3297012e-05    0.5745102  0.056552243            0   0.51795796    1.5119245    2.0864347    4.2469727 
19930000    1.0557855 -3.9563501e-05   0.51621172  0.041860764            0   0.47435096    1.5704809    2.0866927   0.73625851 
19935000    1.0248234 -3.7155698e-05   0.56434526  0.057573226            0   0.50677204    1.5244248      2.08877   0.82052223 
19940000    1.0975921 1.9685564e-05   0.43705147  0.029720277            0   0.40733119    1.6326682    2.0697197    2.7416536 
19945000    1.0798642 -7.1730799e-05   0.45693673  0.015324882            0   0.44161185    1.6062981    2.0632348  -0.38517649 
19950000    1.1065727 -0.000126951   0.43790831 0.0063834679            0   0.43152485    1.6460269    2.0839353   -2.2493255 
19955000    1.1181577 -3.7218437e-05   0.42461484  0.022737177            0   0.40187767    1.6632597    2.0878745   0.81748519 
19960000    1.0407606 7.4967694e-05   0.52686152   0.04641027            0   0.48045125    1.5481314     2.074993    4.6338903 
19965000    1.0610762 0.00012731968   0.48153546  0.028533434            0   0.45300202    1.5783509    2.0598864    6.4057315 
19970000    1.0694425 -1.9327255e-05   0.44117092  0.041374368            0   0.39979655    1.5907957    2.0319667     1.372263 
19975000    1.0012409 -1.2087506e-05   0.54868412  0.078717869            0   0.46996625    1.4893458    2.0380299     1.625443 
19980000   0.99121738 2.5274057e-05   0.54027269  0.011313529            0   0.52895916    1.4744359    2.0147086    2.8773964 
19985000    1.0217758 -7.4101129e-05   0.50993802  0.019694739            0   0.49024328    1.5198915    2.0298295  -0.49948899 
19990000   0.98560681 -7.3226998e-05    0.5523374  0.010945518            0   0.54139188    1.4660901    2.0184275  -0.48105401 
19995000     1.004474 -5.7171541e-05   0.49985435  0.024690703            0   0.47516365    1.4941551    1.9940094  0.042554128 
20000000    1.0301655 -0.000149361   0.44170004  0.013650056            0   0.42804998    1.5323712    1.9740712   -3.1241175 
Loop time of 246.039 on 1 procs for 20000000 steps with 120 atoms

Performance: 70232.892 tau/day, 81288.069 timesteps/s
99.5% CPU use with 1 MPI tasks x no OpenMP threads

MPI task timing breakdown:
Section |  min time  |  avg time  |  max time  |%varavg| %total
---------------------------------------------------------------
Pair    | 13.046     | 13.046     | 13.046     |   0.0 |  5.30
Bond    | 40.334     | 40.334     | 40.334     |   0.0 | 16.39
Neigh   | 20.621     | 20.621     | 20.621     |   0.0 |  8.38
Comm    | 51.442     | 51.442     | 51.442     |   0.0 | 20.91
Output  | 0.66948    | 0.66948    | 0.66948    |   0.0 |  0.27
Modify  | 111.24     | 111.24     | 111.24     |   0.0 | 45.21
Other   |            | 8.686      |            |       |  3.53

Nlocal:        120.000 ave         120 max         120 min
Histogram: 1 0 0 0 0 0 0 0 0 0
Nghost:        0.00000 ave           0 max           0 min
Histogram: 1 0 0 0 0 0 0 0 0 0
Neighs:        40.0000 ave          40 max          40 min
Histogram: 1 0 0 0 0 0 0 0 0 0

Total # of neighbors = 40
Ave neighs/atom = 0.33333333
Ave special neighs/atom = 5.9000000
Neighbor list builds = 4072
Dangerous builds = 0
write_restart restart.equil
System init for write_restart ...
WARNING: Communication cutoff 1.4200000000000002 is shorter than a bond length based estimate of 1.8. This may lead to errors. (../comm.cpp:667)
#--------------End of Input file ------------------
Total wall time: 0:04:06
