LAMMPS (29 Oct 2020)
###################### polyelectrolyte complexation ######################
clear

#Initialization
#------------------------------------
units				lj
dimension			3
atom_style			full
boundary			p p p

#Atom Definition
#-------------------------------------
read_data			data.complexation
Reading data file ...
  orthogonal box = (-120.00000 -120.00000 -120.00000) to (120.00000 120.00000 120.00000)
  1 by 1 by 1 MPI processor grid
  reading atoms ...
  200 atoms
  scanning bonds ...
  1 = max bonds/atom
  reading bonds ...
  199 bonds
Finding 1-2 1-3 1-4 neighbors ...
  special bond factors lj:    0.0      0.0      0.0     
  special bond factors coul:  0.0      0.0      0.0     
     2 = max # of 1-2 neighbors
     2 = max # of 1-3 neighbors
     4 = max # of 1-4 neighbors
     6 = max # of special neighbors
  special bonds CPU = 0.000 seconds
  read_data CPU = 0.004 seconds

#Force definition
#----------------------------------------------
#Bond definition
bond_style			harmonic
bond_coeff			1 5000 1
#Pair definition
special_bonds	lj 0 1 1
Finding 1-2 1-3 1-4 neighbors ...
  special bond factors lj:    0.0      1.0      1.0     
  special bond factors coul:  0.0      0.0      0.0     
     2 = max # of 1-2 neighbors
     2 = max # of 1-3 neighbors
     4 = max # of 1-4 neighbors
     6 = max # of special neighbors
  special bonds CPU = 0.000 seconds
pair_style		 lj/cut 1.12
pair_modify 		 shift yes
pair_coeff	1 1 1 1 1.12

#Timestep etc
#--------------------------------------------
timestep		1e-05
run_style		verlet
velocity		all	create	1	19

#Fix
#---------------------------------------
group polymers type 1
200 atoms in group polymers
fix 1 all nve
fix 2 all langevin 1	1	10	19
fix 3 polymers recenter INIT INIT INIT units box

#Dump
#------------------------------------------------
compute  1 all gyration
variable  myRg2 equal c_1
variable  i equal step
fix  mythermofile all print 5000 "$i ${myRg2}" file radius_of_gyration.dat screen no

thermo_style		 custom step temp press pe evdwl ecoul ebond ke etotal enthalpy
thermo 	5000
dump	3 all custom 5000 dump.lammpstrj id mol type xu yu zu
run		20000000
Neighbor list info ...
  update every 1 steps, delay 10 steps, check yes
  max neighbors/atom: 2000, page size: 100000
  master list distance cutoff = 1.42
  ghost atom cutoff = 1.42
  binsize = 0.71, bins = 339 339 339
  1 neighbor lists, perpetual/occasional/extra = 1 0 0
  (1) pair lj/cut, perpetual
      attributes: half, newton on
      pair build: half/bin/newton
      stencil: half/bin/3d/newton
      bin: standard
WARNING: Communication cutoff 1.4200000000000002 is shorter than a bond length based estimate of 1.8. This may lead to errors. (../comm.cpp:667)
Per MPI rank memory allocation (min/avg/max) = 165.7 | 165.7 | 165.7 Mbytes
Step Temp Press PotEng E_vdwl E_coul E_bond KinEng TotEng Enthalpy 
       0            1 1.4395255e-05            0            0            0            0       1.4925       1.4925       2.4875 
    5000   0.77763983 -0.00020802331   0.33173359            0            0   0.33173359    1.1606274     1.492361    -12.88621 
   10000   0.47299272 -0.00051230009   0.78732782            0            0   0.78732782   0.70594163    1.4932695   -33.916913 
   15000   0.65713227 -0.00030915039   0.52764553            0            0   0.52764553   0.98076991    1.5084154   -19.860059 
   20000   0.73388837 -0.00019030667   0.41265981            0            0   0.41265981    1.0953284    1.5079882   -11.646009 
   25000   0.57296525 -0.0004014817   0.64171377            0            0   0.64171377   0.85515064    1.4968644   -26.253551 
   30000    0.6086371 -0.00039018158   0.59375661            0            0   0.59375661   0.90839087    1.5021475   -25.467203 
   35000    0.7760633 -0.00017589714   0.35552617            0            0   0.35552617    1.1582745    1.5138006    -10.64421 
   40000   0.67870085 -0.00026122926   0.49581386            0            0   0.49581386     1.012961    1.5087749   -16.547391 
   45000   0.58164869 -0.00038603192   0.64181467            0            0   0.64181467   0.86811067    1.5099253   -25.172601 
   50000   0.68444374 -0.00024591776   0.46987778            0            0   0.46987778    1.0215323    1.4914101   -15.506425 
   55000    0.7447733 -0.00016681134   0.38001222            0            0   0.38001222    1.1115742    1.4915864   -10.038414 
   60000   0.67079517 -0.00026469727   0.48929201            0            0   0.48929201    1.0011618    1.4904538   -16.805422 
   65000   0.69873584 -0.00029592107   0.45342758            0            0   0.45342758    1.0428632    1.4962908   -18.957774 
   70000   0.77519703 -0.00017293623   0.32902233            0            0   0.32902233    1.1569816    1.4860039   -10.467348 
   75000   0.71375042 -0.00015501465   0.42736029            0            0   0.42736029    1.0652725    1.4926328     -9.22198 
   80000   0.72237151 -0.00026084242   0.43458274            0            0   0.43458274    1.0781395    1.5127222   -16.516706 
   85000   0.71716595 -0.00023636685    0.4465315            0            0    0.4465315    1.0703702    1.5169017   -14.820775 
   90000   0.77306325 -0.00011185295   0.37646141            0            0   0.37646141    1.1537969    1.5302583   -6.2010173 
   95000   0.76151533 -0.00016218676     0.408038            0            0     0.408038    1.1365616    1.5445996   -9.6657494 
  100000   0.73449167 -0.0002205043   0.45165882            0            0   0.45165882    1.0962288    1.5478876   -13.693369 
  105000    0.7678954 -0.00016486098   0.40731955            0            0   0.40731955    1.1460839    1.5534034   -9.8417875 
  110000   0.78463081 -0.00010951233   0.38167669            0            0   0.38167669    1.1710615    1.5527382   -6.0167538 
  115000   0.79198265 -0.0001167461   0.38718944            0            0   0.38718944    1.1820341    1.5692235   -6.5002667 
  120000   0.82386218 -0.00012453873   0.35572302            0            0   0.35572302    1.2296143    1.5853373   -7.0227796 
  125000   0.82196422 -0.00015781651   0.35289588            0            0   0.35289588    1.2267816    1.5796775   -9.3285994 
  130000    0.8153106 -0.00011748768   0.36986653            0            0   0.36986653    1.2168511    1.5867176   -6.5340307 
  135000   0.84080379 -4.6587355e-05    0.3310159            0            0    0.3310159    1.2548997    1.5859156   -1.6342024 
  140000   0.83219754 -9.3969869e-05   0.34831987 0.00018180651            0   0.34813807    1.2420548    1.5903747   -4.9048226 
  145000   0.85604333 -0.00011534588   0.32749935 0.00072885214            0    0.3267705    1.2776447     1.605144   -6.3675631 
  150000   0.83994256 -5.9796838e-05   0.35287332 0.0008583501            0   0.35201497    1.2536143    1.6064876   -2.5266698 
  155000   0.86634803 -7.1782662e-05   0.31845925 0.0001839702            0   0.31827528    1.2930244    1.6114837   -3.3501339 
  160000   0.83480527 -0.00014840329   0.36184549            0            0   0.36184549    1.2459469    1.6077924   -8.6498429 
  165000   0.84700917 -5.6283707e-05    0.3450017            0            0    0.3450017    1.2641612    1.6091629   -2.2811669 
  170000   0.88618631 -3.0829242e-05   0.29618005            0            0   0.29618005    1.3226331    1.6188131  -0.51210411 
  175000   0.87642484 -7.6139285e-05   0.31407631            0            0   0.31407631    1.3080641    1.6221404    -3.640607 
  180000   0.85850074 -6.9145036e-05   0.33311484            0            0   0.33311484    1.2813124    1.6144272   -3.1648777 
  185000     0.880156 -4.8250503e-05   0.31198849            0            0   0.31198849    1.3136328    1.6256213   -1.7094535 
  190000   0.84375637 -3.3585311e-05   0.36901939            0            0   0.36901939    1.2593064    1.6283258  -0.69309093 
  195000   0.88571574 -6.3056836e-05   0.29763029            0            0   0.29763029    1.3219307     1.619561   -2.7389274 
  200000   0.85636166 -3.1977746e-05   0.35734966            0            0   0.35734966    1.2781198    1.6354694  -0.57483237 
  205000   0.88456441 -5.0750352e-05   0.32330357            0            0   0.32330357    1.3202124    1.6435159   -1.8643484 
  210000   0.87288537 -5.1310478e-05   0.32514396            0            0   0.32514396    1.3027814    1.6279254   -1.9186549 
  215000   0.86443874 -1.1637687e-05   0.32875444            0            0   0.32875444    1.2901748    1.6189293   0.81453236 
  220000   0.88988582 -1.6719303e-05    0.2939126            0            0    0.2939126    1.3281546    1.6220672   0.46642893 
  225000   0.85323927 -8.3812812e-05    0.3504652            0            0    0.3504652    1.2734596    1.6239248   -4.1692168 
  230000   0.87909611 -4.1225346e-05   0.31542367            0            0   0.31542367     1.312051    1.6274746   -1.2220213 
  235000   0.87881512 7.4178308e-06   0.31840429            0            0   0.31840429    1.3116316    1.6300359    2.1427563 
  240000   0.86966285 -4.6904874e-05   0.32916245            0            0   0.32916245    1.2979718    1.6271343   -1.6149306 
  245000   0.85165933 -6.6767682e-05   0.34730734            0            0   0.34730734    1.2711015    1.6184089   -2.9965733 
  250000   0.87000827 -2.2698701e-05   0.33390636 6.5944419e-05            0   0.33384041    1.2984873    1.6323937   0.06345947 
  255000   0.88267089 -1.0863459e-05   0.32249123 0.00019680048            0   0.32229443    1.3173863    1.6398775   0.88899522 
  260000   0.86426487 -1.6284443e-05   0.36908717 0.00031391748            0   0.36877325    1.2899153    1.6590025   0.53342182 
  265000   0.92782609 -7.3198809e-05   0.29463769 0.00079369394            0   0.29384399    1.3847804    1.6794181   -3.3800836 
  270000   0.91562263 -7.3604467e-06    0.3405543 0.00032150041            0   0.34023279    1.3665668    1.7071211     1.198367 
  275000   0.94555077 -5.6309285e-06   0.30266416 6.3144924e-05            0   0.30260101    1.4112345    1.7138987    1.3246889 
  280000   0.93327868 -5.0545028e-05   0.31597685            0            0   0.31597685    1.3929184    1.7088953    -1.784777 
  285000   0.91395456 -5.5511516e-05   0.35403446            0            0   0.35403446    1.3640772    1.7181116   -2.1188443 
  290000   0.92499222 -1.616977e-05    0.3290648            0            0    0.3290648    1.3805509    1.7096157   0.59196117 
  295000   0.95258611 4.0279422e-07   0.28874871            0            0   0.28874871    1.4217348    1.7104835    1.7383246 
  300000   0.91034621 -2.6719805e-05   0.35982574            0            0   0.35982574    1.3586917    1.7185175  -0.12835548 
  305000   0.91902285 -4.3042279e-05   0.34093642            0            0   0.34093642    1.3716416     1.712578   -1.2625043 
  310000    0.9056077 1.4507741e-05   0.34633677            0            0   0.34633677    1.3516195    1.6979563    2.7007313 
  315000    0.9222668 -1.5873693e-05   0.33856403            0            0   0.33856403    1.3764832    1.7150472   0.61785754 
  320000   0.91007524 -3.5418119e-05   0.36338897            0            0   0.36338897    1.3582873    1.7216763  -0.72642415 
  325000   0.88047998 4.7291884e-06   0.40205729            0            0   0.40205729    1.3141164    1.7161737    2.0430552 
  330000   0.93545382 -1.9971972e-05   0.31637761            0            0   0.31637761    1.3961648    1.7125424   0.33207971 
  335000   0.87914422 -1.3679215e-05   0.38151307            0            0   0.38151307    1.3121227    1.6936358   0.74812845 
  340000   0.88265092 1.7116525e-05    0.3638782            0            0    0.3638782    1.3173565    1.6812347    2.8643289 
  345000   0.87964426 -3.3901071e-05   0.37007714            0            0   0.37007714    1.3128691    1.6829462  -0.66029585 
  350000   0.87684751 -2.2824294e-05   0.35396183            0            0   0.35396183    1.3086949    1.6626567  0.085041514 
  355000   0.89170403 -1.5804776e-05   0.33858669            0            0   0.33858669    1.3308683     1.669455   0.57702886 
  360000   0.89067555 1.1645185e-05   0.34725478            0            0   0.34725478    1.3293333     1.676588    2.4815032 
  365000    0.8738448 -3.9711045e-05   0.35847471            0            0   0.35847471    1.3042134    1.6626881   -1.0821393 
  370000   0.89895961 -4.1231157e-05   0.33214756            0            0   0.33214756    1.3416972    1.6738448   -1.1760528 
  375000   0.91663602 2.7349555e-05   0.31386667            0            0   0.31386667    1.3680793    1.6819459    3.5723471 
  380000   0.90267992 -1.4869153e-05   0.32317092            0            0   0.32317092    1.3472498    1.6704207   0.64266486 
  385000   0.90384562 -6.1328383e-05   0.31312626            0            0   0.31312626    1.3489896    1.6621159    -2.576902 
  390000   0.87666515 3.0416344e-05   0.35168212            0            0   0.35168212    1.3084227    1.6601049    3.7624826 
  395000   0.89812279 6.0195395e-06   0.34670992            0            0   0.34670992    1.3404483    1.6871582    2.1032288 
  400000   0.93010296 -6.805449e-05   0.32360534            0            0   0.32360534    1.3881787     1.711784   -2.9921423 
  405000   0.93067518 2.4006883e-05   0.36157931            0            0   0.36157931    1.3890327     1.750612    3.4099678 
  410000   0.94515293 3.8119998e-05   0.35080842            0            0   0.35080842    1.4106408    1.7614492    4.3963034 
  415000   0.87501895 -9.6492675e-05   0.45762458            0            0   0.45762458    1.3059658    1.7635904   -4.9059833 
  420000   0.90214999 4.6744098e-05   0.40888693            0            0   0.40888693    1.3464589    1.7553458    4.9862978 
  425000   0.93415983 -2.8577406e-05   0.36249214            0            0   0.36249214    1.3942336    1.7567257  -0.21854462 
  430000   0.89975476 -2.1466862e-05   0.41054435            0            0   0.41054435     1.342884    1.7534283   0.26963885 
  435000   0.96492915 -3.0683304e-05    0.3118812            0            0    0.3118812    1.4401568     1.752038    -0.368792 
  440000   0.90609772 4.112944e-05    0.3927056            0            0    0.3927056    1.3523508    1.7450564    4.5879234 
  445000   0.88875831 -5.4114146e-05   0.42130147            0            0   0.42130147    1.3264718    1.7477733   -1.9925965 
  450000   0.91493096 4.6867887e-06   0.39287929            0            0   0.39287929    1.3655345    1.7584137    2.0823646 
  455000   0.93119431 2.3638282e-05   0.35356644            0            0   0.35356644    1.3898075    1.7433739     3.377252 
  460000   0.91962421 -4.2958105e-05   0.36730421            0            0   0.36730421    1.3725391    1.7398434   -1.2294208 
  465000   0.95665261 2.5938825e-05   0.32827179            0            0   0.32827179     1.427804    1.7560758    3.5489674 
  470000   0.92151747 -3.4305118e-05   0.38618038            0            0   0.38618038    1.3753648    1.7615452  -0.60962458 
  475000   0.96111922 -2.1850863e-05   0.31640206            0            0   0.31640206    1.4344704    1.7508725   0.24054081 
  480000   0.93000134 -1.2403754e-06   0.36463653            0            0   0.36463653     1.388027    1.7526635    1.6669288 
  485000   0.94255233 1.4761746e-05   0.33615134            0            0   0.33615134    1.4067593    1.7429107    2.7632426 
  490000    0.9231489 -1.3522412e-05   0.37433292            0            0   0.37433292    1.3777997    1.7521327   0.81746356 
  495000   0.89193596 -3.5372007e-05   0.43485863            0            0   0.43485863    1.3312144     1.766073   -0.6788401 
  500000   0.91556214 4.5142332e-05    0.3850596 3.5619382e-05            0   0.38502398    1.3664765    1.7515361    4.8717741 
  505000   0.88606677 -0.00011160831   0.43458666 0.0021843586            0    0.4324023    1.3224547    1.7570413    -5.957325 
  510000   0.97530946 6.4615492e-05   0.30034148 0.0037184546            0   0.29662303    1.4556494    1.7559908    6.2222136 
  515000   0.94700485 -5.9573491e-05   0.34811453 0.00042576192            0   0.34768877    1.4134047    1.7615193   -2.3562004 
  520000   0.95365333 6.6727815e-06   0.34862137            0            0   0.34862137    1.4233276     1.771949    2.2331716 
  525000   0.93541349 -3.120357e-05   0.36718005            0            0   0.36718005    1.3961046    1.7632847  -0.39350606 
  530000   0.95322555 3.2610826e-05    0.3327563            0            0    0.3327563    1.4226891    1.7554454    4.0095057 
  535000   0.92349725 -4.8520026e-05   0.36558906            0            0   0.36558906    1.3783196    1.7439087   -1.6097955 
  540000   0.92548253 -1.1233454e-06   0.34541125            0            0   0.34541125    1.3812827    1.7266939    1.6490483 
  545000   0.95137558 2.4204149e-05   0.31978032            0            0   0.31978032     1.419928    1.7397084    3.4126992 
  550000   0.92367758 -7.1216875e-05   0.36250174            0            0   0.36250174    1.3785888    1.7410905   -3.1814199 
  555000   0.90740441 1.8199486e-05    0.3949447            0            0    0.3949447    1.3543011    1.7492458    3.0071943 
  560000   0.90425994 -8.6191199e-06   0.40096819            0            0   0.40096819     1.349608    1.7505761    1.1548226 
  565000   0.93111756 -1.9422745e-05   0.37016962            0            0   0.37016962     1.389693    1.7598626   0.41736246 
  570000   0.97588642 2.3677997e-05   0.31855017            0            0   0.31855017    1.4565105    1.7750607    3.4116838 
  575000    0.8781528 -4.9595934e-05   0.45625845            0            0   0.45625845    1.3106431    1.7669015   -1.6611695 
  580000   0.93489758 2.8549078e-05   0.37964528            0            0   0.37964528    1.3953346    1.7749799    3.7482922 
  585000   0.93063697 -1.6365451e-05   0.37269249 6.6398832e-05            0   0.37262609    1.3889757    1.7616682   0.63048819 
  590000   0.92602529 1.2117694e-05   0.38085847 0.0018103403            0   0.37904813    1.3820928    1.7629512    2.6005262 
  595000   0.91940735 -4.4509754e-05   0.38576439  0.003812548            0   0.38195184    1.3722155    1.7579799   -1.3185343 
  600000   0.95090029 5.938598e-06   0.35161512 0.0010405921            0   0.35057453    1.4192187    1.7708338    2.1813097 
  605000   0.95958064 -3.4603668e-05   0.33848154            0            0   0.33848154    1.4321741    1.7706556  -0.62114991 
  610000   0.92417724 2.063828e-05   0.38942771            0            0   0.38942771    1.3793345    1.7687622    3.1952802 
  615000   0.91735105 -3.1025809e-05   0.38972627            0            0   0.38972627    1.3691464    1.7588727  -0.38563122 
  620000    0.9359471 8.0704054e-07   0.35099623            0            0   0.35099623     1.396901    1.7478973    1.8036799 
  625000   0.89229866 -2.5547009e-05   0.39996388            0            0   0.39996388    1.3317558    1.7317196  -0.03408965 
  630000   0.92486287 3.9477909e-05   0.36478047 7.7558419e-06            0   0.36477272    1.3803578    1.7451383    4.4738514 
  635000    0.9043564 -4.420684e-05    0.3996532 0.0014196573            0   0.39823354    1.3497519    1.7494051   -1.3061717 
  640000   0.89427151 1.8861359e-05   0.41535573 0.0042271258            0   0.41112861    1.3347002     1.750056    3.0537531 
  645000   0.93910267 -3.1060375e-05   0.36248012 0.0027625998            0   0.35971752    1.4016107    1.7640909  -0.38280224 
  650000   0.91686606 -2.0552982e-05   0.38440565 0.0016914137            0   0.38271424    1.3684226    1.7528282   0.33220616 
  655000    0.9282914 3.4198278e-06   0.39121231 0.00068991109            0    0.3905224    1.3854749    1.7766872    2.0130657 
  660000   0.93808768 -3.2033738e-05   0.37975135 0.0005891568            0   0.37916219    1.4000959    1.7798472  -0.43432473 
  665000   0.92870793 -4.7639104e-05    0.4058551 0.00082000994            0   0.40503509    1.3860966    1.7919517   -1.5008632 
  670000   0.95686836 3.394577e-05   0.36785443 0.0020440033            0   0.36581043     1.428126    1.7959805    4.1423121 
  675000   0.91895051 -4.4953693e-05    0.4043857 0.0021806497            0   0.40220505    1.3715336    1.7759193   -1.3312799 
  680000   0.96350318 2.1968304e-05   0.34475524 0.0001914575            0   0.34456378    1.4380285    1.7827837    3.3012329 
  685000   0.92071374 1.2942033e-05   0.41117536            0            0   0.41117536    1.3741653    1.7853406     2.679894 
  690000    0.9540741 -3.8645924e-05   0.38382713 0.00044326512            0   0.38338386    1.4239556    1.8077827  -0.86342353 
  695000   0.93978211 4.4395687e-05    0.4210856 0.0020284788            0   0.41905712    1.4026248    1.8237104    4.8923403 
  700000   0.92519952 -4.7338559e-05   0.45184147 0.0086047166            0   0.44323676    1.3808603    1.8327018   -1.4393394 
  705000   0.95278317 -1.250552e-06   0.43790544 0.0065631282            0   0.43134232    1.4220289    1.8599343    1.7734962 
  710000   0.97993068 4.3629839e-06   0.41028622 0.0001209882            0   0.41016523    1.4625465    1.8728328    2.1744022 
  715000   0.99036175 -2.4842912e-05   0.38360417 0.00038059149            0   0.38322358    1.4781149    1.8617191     0.144577 
  720000    1.0044629 9.8542718e-06   0.36137192 0.00076587264            0   0.36060605    1.4991608    1.8605327      2.54166 
  725000   0.97297159 -2.9759454e-05   0.38924668 0.00037346945            0   0.38887321    1.4521601    1.8414068   -0.2155667 
  730000   0.98623183 2.463112e-05   0.37747535 7.5056522e-05            0   0.37740029     1.471951    1.8494264    3.5519294 
  735000   0.99082631 -1.1821975e-05   0.36316886 0.00016161735            0   0.36300724    1.4788083    1.8419771    1.0248422 
  740000   0.98460448 -1.0891317e-05    0.3742778 0.0013101049            0   0.37296769    1.4695222       1.8438    1.0909922 
  745000    0.9877701 5.1610502e-06   0.37845661 0.0070408287            0   0.37141578    1.4742469    1.8527035    2.2094353 
  750000   0.97817704 -1.9540882e-05   0.41732949  0.011370597            0   0.40595889    1.4599292    1.8772587   0.52659295 
  755000   0.95143263 6.7155056e-06   0.45193652 0.00063154083            0   0.45130498    1.4200132    1.8719497    2.3361255 
  760000   0.98314005 1.3857828e-05   0.42117062            0            0   0.42117062    1.4673365    1.8885071    2.8463602 
  765000    1.0038813 -2.6243032e-05   0.38111643            0            0   0.38111643    1.4982928    1.8794092  0.065490864 
  770000    1.0117195 2.6390486e-05   0.37949811 6.679222e-06            0   0.37949143    1.5099913    1.8894894    3.7135998 
  775000    1.0103694 3.3833539e-07   0.38365999 1.0978819e-05            0   0.38364901    1.5079763    1.8916363    1.9150221 
  780000   0.99039509 -3.1650461e-06   0.41351784 0.00014727853            0   0.41337056    1.4781647    1.8916825    1.6729145 
  785000   0.99020451 -2.3702088e-05   0.41510123 1.985611e-06            0   0.41509924    1.4778802    1.8929815   0.25469316 
  790000    1.0258044 -4.1525556e-06   0.36557356            0            0   0.36557356    1.5310131    1.8965867     1.609562 
  795000   0.99965826 -6.3437967e-05   0.40451072 3.6388564e-05            0   0.40447433      1.49199    1.8965007   -2.4883316 
  800000    1.0137801 3.6605863e-05    0.3749791  0.001357062            0   0.37362204    1.5130668    1.8880459    4.4182432 
  805000   0.96551108 -5.9545211e-05    0.4471496 0.0012199932            0   0.44592961    1.4410253    1.8881749   -2.2275901 
  810000   0.97298012 1.1939271e-05    0.4297225 0.00044228803            0   0.42928021    1.4521728    1.8818953    2.7071377 
  815000    1.0007248 1.6176496e-05   0.39410646 0.00012335661            0   0.39398311    1.4935818    1.8876882    3.0058077 
  820000    1.0183047 4.9117551e-06   0.39626503 1.2878637e-05            0   0.39625216    1.5198197    1.9160848    2.2555853 
  825000   0.98509225 -2.8512386e-05   0.43863223 0.00010835279            0   0.43852388    1.4702502    1.9088824 -0.061893731 
  830000   0.97651609 -3.4090907e-05   0.45721212            0            0   0.45721212    1.4574503    1.9146624  -0.44170108 
  835000    1.0051789 -2.5135349e-06    0.4297561            0            0    0.4297561    1.5002296    1.9299857    1.7562501 
  840000   0.99745978 -3.7660041e-06   0.42871037            0            0   0.42871037    1.4887087    1.9174191    1.6571129 
  845000    1.0317911 4.2338121e-05   0.36979233 0.0028090644            0   0.36698327    1.5399482    1.9097406    4.8361515 
  850000   0.98381809 6.3426909e-06   0.43883996 0.0077800226            0   0.43105994    1.4683485    1.9071885    2.3455953 
  855000   0.99241827 -4.1947712e-06   0.42125943 0.0015398947            0   0.41971953    1.4811843    1.9024437    1.6125011 
  860000   0.99309064 -3.0392681e-05   0.40659825            0            0   0.40659825    1.4821878     1.888786  -0.21195609 
  865000    1.0157004 4.3960096e-05   0.36943137            0            0   0.36943137    1.5159329    1.8853642     4.923886 
  870000   0.94336296 -4.9823293e-05   0.49403867            0            0   0.49403867    1.4079692    1.9020079   -1.5417781 
  875000    1.0220562 4.0536351e-07   0.38747165 0.0001441714            0   0.38732748    1.5254189    1.9128905    1.9409092 
  880000    1.0373547 -8.8449123e-06   0.39258683 0.0012225107            0   0.39136432    1.5482519    1.9408387    1.3294784 
  885000   0.99014976 -1.2473243e-05   0.45408287 0.0026861009            0   0.45139677    1.4777985    1.9318814    1.0697308 
  890000    1.0301269 5.0759673e-05    0.4010805 0.0048623887            0   0.39621811    1.5374645     1.938545    5.4470536 
  895000     1.038716 -2.5153188e-05   0.38529089 0.0033418836            0     0.381949    1.5502837    1.9355745   0.19698616 
  900000     1.002264 -6.1522753e-05   0.43725823 0.00042351397            0   0.43683471    1.4958791    1.9331373   -2.3193154 
  905000     1.001699 4.2062758e-05   0.44982463            0            0   0.44982463    1.4950357    1.9448604    4.8522382 
  910000   0.96711726 -6.1050324e-05   0.48425611            0            0   0.48425611    1.4434225    1.9276786   -2.2921198 
  915000    1.0068004 1.7653737e-05   0.40991644            0            0   0.40991644    1.5026497    1.9125661    3.1327924 
  920000    1.0352637 2.0838745e-05   0.37746873            0            0   0.37746873    1.5451311    1.9225999     3.362974 
  925000   0.99408187 -1.1554038e-05   0.43262462            0            0   0.43262462    1.4836672    1.9162918    1.1176767 
  930000   0.98314165 1.312693e-06    0.4498482            0            0    0.4498482    1.4673389    1.9171871    2.0079204 
  935000    1.0043521 3.6024301e-06   0.42439483            0            0   0.42439483    1.4989954    1.9233903    2.1723902 
  940000   0.99130758 -2.2697917e-05   0.43554552            0            0   0.43554552    1.4795266    1.9150721   0.34619206 
  945000    1.0002541 4.612692e-06   0.42979982            0            0   0.42979982    1.4928793    1.9226791    2.2415084 
  950000    1.0154167 -4.6496301e-05   0.39986713            0            0   0.39986713    1.5155094    1.9153765   -1.2984478 
  955000    1.0183738 4.3244862e-05   0.40293867 0.00069131141            0   0.40224736     1.519923    1.9228616    4.9119465 
  960000    1.0266284 8.9842995e-06   0.39684609 0.0042370261            0   0.39260906    1.5322429     1.929089    2.5500838 
  965000   0.99271479 -1.89895e-05    0.4679406 0.0026383061            0   0.46530229    1.4816268    1.9495674   0.63701318 
  970000    1.0160714 -5.273516e-05   0.45812458 8.7717814e-05            0   0.45803686    1.5164866    1.9746112   -1.6704431 
  975000    1.0115976 2.7519197e-05   0.44314789            0            0   0.44314789    1.5098094    1.9529573    3.8550842 
  980000    1.0111159 -7.5346673e-05    0.4606684 0.00074080377            0    0.4599276    1.5090905    1.9697589   -3.2382031 
  985000    1.0325362 4.810189e-05     0.412533 0.0024407041            0    0.4100923    1.5410603    1.9535933     5.278396 
  990000    1.0209275 -9.0627404e-05   0.43032067 0.00077322285            0   0.42954744    1.5237343    1.9540549   -4.3101113 
  995000    1.0470795 1.3318937e-05   0.39443953            0            0   0.39443953    1.5627661    1.9572056    2.8778105 
 1000000    1.0557956 -9.7976363e-06   0.39302835 0.00015450587            0   0.39287385     1.575775    1.9688033    1.2915907 
 1005000    1.0397185 1.9644368e-05   0.43267089 0.0008779199            0   0.43179297    1.5517798    1.9844507    3.3422694 
 1010000    1.0436856 -9.6800008e-06   0.42023391 0.0029176983            0   0.41731621    1.5577007    1.9779347     1.308853 
 1015000    1.0347281 1.7077328e-06   0.42527835  0.003864111            0   0.42141424    1.5443317      1.96961    2.0876485 
 1020000    1.0882071 1.7222593e-05   0.34611371 0.0010524415            0   0.34506127    1.6241491    1.9702628    3.1606885 
 1025000    1.0629104 -6.3525173e-05    0.3804728 0.00010658409            0   0.38036621    1.5863938    1.9668666   -2.4239933 
 1030000    1.0655806 4.1425095e-05   0.38560819 0.00038395961            0   0.38522423     1.590379    1.9759872    4.8392897 
 1035000   0.99915807 -4.1382406e-05   0.48524222 0.0017127762            0   0.48352945    1.4912434    1.9764856  -0.88386626 
 1040000    1.0166594 7.9223068e-06   0.45921657  0.004240853            0   0.45497572    1.5173642    1.9765807    2.5241706 
 1045000    1.0244941 2.1148496e-05   0.45430762 0.0015560011            0   0.45275161    1.5290575    1.9833651    3.4451491 
 1050000    1.0237283 -5.5731861e-05   0.45226608 1.5158752e-05            0   0.45225092    1.5279145    1.9801806   -1.8720057 
 1055000    1.0081478 9.2678915e-05    0.4835683            0            0    0.4835683    1.5046607     1.988229    8.3941955 
 1060000    1.0219105 -0.00010170339   0.46586229            0            0   0.46586229    1.5252014    1.9910637   -5.0386746 
 1065000    1.0505046 1.8825974e-05   0.43442578            0            0   0.43442578    1.5678782     2.002304    3.3035553 
 1070000    1.0550254 -4.0848607e-05   0.44709311            0            0   0.44709311    1.5746253    2.0217184  -0.80173726 
 1075000    1.0711941 3.2989288e-05   0.42192725            0            0   0.42192725    1.5987571    2.0206844     4.300904 
 1080000      1.06235 -3.1115437e-05   0.44008979            0            0   0.44008979    1.5855573    2.0256471  -0.12505191 
 1085000    1.0428828 -3.2052389e-05   0.48100839            0            0   0.48100839    1.5565026     2.037511  -0.17795013 
 1090000    1.0772191 3.8370619e-05   0.43051217            0            0   0.43051217    1.6077495    2.0382617    4.6904389 
 1095000     1.084963 -1.6682397e-05   0.41964815            0            0   0.41964815    1.6193073    2.0389555   0.88586823 
 1100000    1.0510585 -2.6643296e-05   0.47536827 0.00077747451            0   0.47459079    1.5687049    2.0440732   0.20248852 
 1105000     1.071292 -7.1411957e-06    0.4392426 0.0062912459            0   0.43295135    1.5989034    2.0381459    1.5445465 
 1110000    1.0623994 -6.3889823e-05   0.45236526 0.0017840851            0   0.45058117    1.5856311    2.0379964   -2.3780682 
 1115000    1.0701759 5.3774137e-06   0.43557343 0.00032643011            0     0.435247    1.5972376     2.032811    2.4044978 
 1120000   0.99919943 -2.7177903e-06   0.51244661 0.00079155307            0   0.51165505    1.4913051    2.0037518    1.8158981 
 1125000    1.0053096 8.0505507e-06   0.48432421 0.00090193944            0   0.48342227    1.5004245    1.9847487    2.5412028 
 1130000    1.0066079 -1.4755657e-05    0.4740143 0.0010548034            0    0.4729595    1.5023622    1.9763765   0.95646553 
 1135000    1.0184417 5.9426873e-05   0.46639445 0.0016595032            0   0.46473495    1.5200242    1.9864186    6.0940041 
 1140000     1.006271 -6.9940443e-05   0.46269465 0.0012068219            0   0.46148783    1.5018594     1.964554   -2.8697294 
 1145000    1.0146345 1.2256494e-05   0.47233841 0.00091410575            0    0.4714243     1.514342    1.9866804    2.8338492 
 1150000    1.0654764 -7.4405381e-05   0.39231438 0.0013164652            0   0.39099792    1.5902236    1.9825379    -3.160362 
 1155000     1.073547 3.7854041e-05   0.36654403 0.0047192542            0   0.36182478    1.6022689    1.9688129    4.5852842 
 1160000   0.96449219 -2.829095e-05   0.51127688 0.0041411703            0   0.50713571    1.4395046    1.9507815 -0.0046889618 
 1165000    1.0372477 2.0780418e-05   0.40736825 0.0013132757            0   0.40605497    1.5480922    1.9554605     3.391803 
 1170000    1.0267463 -1.2495686e-05   0.42621019            0            0   0.42621019    1.5324189    1.9586291    1.0949273 
 1175000    0.9983962 1.8840377e-05    0.4702265 0.0026190317            0   0.46760747    1.4901063    1.9603328    3.2625797 
 1180000    1.0292181 4.2668654e-05   0.42351205 0.0073473326            0   0.41616472     1.536108      1.95962    4.9088774 
 1185000    1.0026545 -5.3943417e-05   0.46238613 0.00069853787            0   0.46168759    1.4964618    1.9588479    -1.769721 
 1190000    1.0141006 6.3979979e-05   0.45705654            0            0   0.45705654    1.5135452    1.9706017    6.3928979 
 1195000    1.0457204 -7.9266385e-05   0.40726687 6.5205178e-05            0   0.40720167    1.5607377    1.9680045    -3.510888 
 1200000     1.029155 -2.4937202e-05   0.42873925 0.0004665915            0   0.42827266    1.5360138     1.964753    0.2410936 
 1205000    1.0176568 5.7707129e-05     0.445658 0.00090221822            0   0.44475578    1.5188527    1.9645107    5.9532275 
 1210000    1.0575295 -4.5254064e-05   0.40423556 0.0026952434            0   0.40154032    1.5783627    1.9825983   -1.1453627 
 1215000    1.0712239 -4.1349201e-05   0.40266308 0.0017602422            0   0.40090284    1.5988017    2.0014647  -0.85659201 
 1220000    1.0371788 4.3100431e-06   0.43863283 0.0011983569            0   0.43743447    1.5479894    1.9866223    2.2845324 
 1225000    1.0264325 -4.4221035e-05   0.45472547 9.0188871e-05            0   0.45463529    1.5319505    1.9866759    -1.069882 
 1230000    1.0250273 5.2140278e-05   0.46803793 0.0021838165            0   0.46585412    1.5298533    1.9978912    5.6018272 
 1235000   0.99643293 -1.917445e-05   0.51007362 0.0052039771            0   0.50486964    1.4871761    1.9972498   0.67191179 
 1240000    1.0378816 -2.8069425e-05   0.46218633 0.0020753615            0   0.46011097    1.5490384    2.0112247  0.071066016 
 1245000    1.0384789 -1.0705816e-05   0.44002944 0.0030209523            0   0.43700849    1.5499298    1.9899592    1.2499732 
 1250000    1.0334172 -1.9564509e-05   0.46772641 0.0026527014            0   0.46507371    1.5423752    2.0101016   0.65780273 
 1255000    1.0611639 -2.9951192e-05    0.4364261 0.0014354536            0   0.43499065    1.5837871    2.0202132 -0.050013193 
 1260000    1.0854804 3.6896361e-05   0.40400286 0.0028049545            0   0.40119791    1.6200795    2.0240824    4.5743589 
 1265000    1.0759367 1.6173291e-05   0.43981792 0.0096070976            0   0.43021082    1.6058355    2.0456534    3.1635513 
 1270000    1.0248313 -4.3614365e-05   0.51001858 0.0034021504            0   0.50661643    1.5295607    2.0395793  -0.97504565 
 1275000    1.0551147 4.2758183e-06   0.45477373 0.00036508682            0   0.45440864    1.5747586    2.0295323    2.3250769 
 1280000    1.0652593 1.0677812e-06   0.43080279 0.00092406168            0   0.42987872    1.5898996    2.0207024    2.0945074 
 1285000    1.0584945 -4.5264786e-05   0.44335958  0.005435148            0   0.43792443    1.5798031    2.0231627   -1.1055393 
 1290000    1.0532636 6.5657718e-05   0.45306946 0.0029630672            0   0.45010639     1.571996    2.0250654    6.5633269 
 1295000    1.0684758 6.3897359e-06   0.43328577 0.0089365665            0   0.42434921    1.5947001    2.0279858    2.4696444 
 1300000    1.0257871 -4.586371e-05   0.50799445  0.014471467            0   0.49352298    1.5309873    2.0389817    -1.131118 
 1305000    1.0744066 6.5373942e-05   0.44464085 0.0053037961            0   0.43933705    1.6035519    2.0481927    6.5668396 
 1310000    1.0315323 6.5351384e-05   0.51384872 0.00088867043            0   0.51296005    1.5395619    2.0534106    6.5704983 
 1315000    1.0739847 -4.5072804e-05   0.43075663 0.00037084223            0   0.43038579    1.6029222    2.0336788   -1.0817534 
 1320000    1.0490821 -2.5344896e-05   0.48830978 0.0016418718            0    0.4866679    1.5657551    2.0540648   0.30222564 
 1325000    1.0461597 -3.5830601e-05   0.47999735 0.0042017711            0   0.47579558    1.5613934    2.0413907  -0.43522044 
 1330000    1.0642895 2.019694e-05   0.44932608  0.008456209            0   0.44086987    1.5884521    2.0377782    3.4337906 
 1335000    1.0786084 -2.2425405e-05   0.41739025  0.010774389            0   0.40661586     1.609823    2.0272132   0.47716926 
 1340000    1.0363886 -3.4493736e-05   0.49629428 0.0063805966            0   0.48991368      1.54681    2.0431043  -0.34110272 
 1345000    1.0765418 2.2794455e-05   0.45062535 0.0025215858            0   0.44810376    1.6067387    2.0573641    3.6329168 
 1350000    1.1256595 -4.2358694e-05   0.38605548 0.0015662945            0   0.38448919    1.6800468    2.0661023  -0.86173067 
 1355000    1.0899861 2.8551312e-05   0.42320446 0.00024589139            0   0.42295857    1.6268043    2.0500088    4.0234754 
 1360000    1.0890853 1.3793529e-05   0.41867429 7.8991803e-06            0   0.41866639    1.6254599    2.0441341    2.9975428 
 1365000     1.027409 4.3595564e-05    0.5174202            0            0    0.5174202    1.5334079    2.0508281    5.0641535 
 1370000    1.0750288 -6.349215e-05   0.45834664 0.0018814686            0   0.45646517    1.6044805    2.0628271   -2.3257502 
 1375000    1.1075762 -6.7910434e-06   0.40139081 0.0068106265            0   0.39458018    1.6530575    2.0544483    1.5850514 
 1380000    1.0815766 -3.8747521e-05   0.44594109 0.0040861539            0   0.44185494     1.614253    2.0601941  -0.61803454 
 1385000    1.0313638 5.379582e-06   0.51200482 8.2325746e-05            0   0.51192249    1.5393104    2.0513153     2.423152 
 1390000    1.0656792 3.4252902e-05   0.45113534 8.0615212e-05            0   0.45105473    1.5905262    2.0416615    4.4092221 
 1395000    1.0564294 -2.396701e-05    0.4604097 0.00054619521            0   0.45986351    1.5767209    2.0371306   0.38053087 
 1400000    1.0839501 3.1222978e-07   0.38970136 0.0048634576            0    0.3848379    1.6177955    2.0074969    2.0290782 
 1405000    1.0226284 -2.1210263e-05   0.45798497 0.0073975277            0   0.45058744    1.5262729    1.9842579   0.51820453 
 1410000    1.0303781 7.2019853e-06   0.44675387 0.0028642521            0   0.44388962    1.5378393    1.9845932    2.4823944 
 1415000    1.0578337 5.6246273e-05   0.40868025 0.0024622931            0   0.40621796    1.5788167     1.987497    5.8752394 
 1420000    1.0588895 -4.5148449e-05   0.39139713 0.00039377848            0   0.39100335    1.5803926    1.9717897   -1.1488711 
 1425000    1.0103174 6.2551745e-05   0.45126316 0.00029877073            0   0.45096438    1.5078987    1.9591619    6.2827385 
 1430000    1.0021252 6.0096695e-05   0.46675446 0.0097851778            0   0.45696928    1.4956718    1.9624263    6.1163098 
 1435000   0.97807161 -4.0322839e-05   0.50303627  0.016569791            0   0.48646648    1.4597719    1.9628081  -0.82430648 
 1440000    1.0170032 5.3138999e-06   0.43720426 0.00090238251            0   0.43630187    1.5178772    1.9550815    2.3223782 
 1445000   0.96012639 -6.6876922e-05   0.52616034 0.00012854275            0   0.52603179    1.4329886     1.959149   -2.6633839 
 1450000    1.0129772 2.2210362e-05   0.44161398 0.0033527045            0   0.43826128    1.5118685    1.9534825    3.4886627 
 1455000    1.0241331 -3.7930572e-05   0.41765767 0.0040248554            0   0.41363281    1.5285187    1.9461764  -0.67558478 
 1460000   0.96385852 -2.305523e-06   0.48664682 0.0016422134            0   0.48500461    1.4385588    1.9252057    1.7658479 
 1465000   0.95711522 -2.2205729e-05   0.48941619   0.01649211            0   0.47292408    1.4284945    1.9179106   0.38305064 
 1470000   0.98093766 -1.0371204e-05   0.47055696 0.0064924263            0   0.46406453    1.4640495    1.9346064    1.2177488 
 1475000    1.0151192 -5.5910982e-06    0.4187989 0.0009382354            0   0.41786067    1.5150655    1.9338644    1.5474077 
 1480000   0.97541241 5.340007e-05   0.46615704            0            0   0.46615704     1.455803    1.9219601    5.6129729 
 1485000   0.94525222 -2.8081316e-05    0.5072509 0.0048112735            0   0.50243963    1.4107889    1.9180398 -0.022940752 
 1490000   0.96546136 4.9815521e-05   0.46982726  0.012538214            0   0.45728905    1.4409511    1.9107783    5.3540271 
 1495000   0.93794813 -2.0911884e-05   0.51355809 0.0025336434            0   0.51102445    1.3998876    1.9134457   0.46801625 
 1500000    0.9651518 -1.7272972e-05   0.48822649 0.00072820054            0   0.48749829    1.4404891    1.9287155   0.73480771 
 1505000   0.96347012 3.3921207e-05   0.47619571 0.0034457173            0   0.47274999    1.4379792    1.9141749    4.2588087 
 1510000   0.97493415 7.3505153e-05   0.45700802 0.0070178335            0   0.44999018    1.4550892    1.9120972    6.9927734 
 1515000   0.95951686 -5.2352961e-05   0.48390535 0.0047274491            0    0.4791779    1.4320789    1.9159843   -1.7026524 
 1520000   0.98177496 2.9087614e-05   0.46089945 0.0055707061            0   0.45532874    1.4652991    1.9261986    3.9367344 
 1525000     0.976762 -1.6323566e-05   0.47469644 0.0012683975            0   0.47342805    1.4578173    1.9325137   0.80422882 
 1530000    1.0023203 7.5748798e-06   0.45088277 0.0035337984            0   0.44734897    1.4959631    1.9468458    2.4704215 
 1535000    1.0088953 -4.0956481e-05   0.45052487 0.0074562139            0   0.44306865    1.5057762     1.956301  -0.87461096 
 1540000   0.98624841 3.5502968e-05   0.48159344  0.013880273            0   0.46771317    1.4719758    1.9535692    4.4075343 
 1545000   0.96493337 2.9070836e-05   0.50744102 0.0060193498            0   0.50142167    1.4401631    1.9476041    3.9569802 
 1550000   0.96183181 3.8885671e-05   0.51615071 0.0086543922            0   0.50749632     1.435534    1.9516847    4.6394623 
 1555000   0.95817157 -1.2605501e-05   0.52192591 0.0099007705            0   0.51202514    1.4300711     1.951997    1.0807048 
 1560000    1.0055326 1.4657184e-05   0.45778569 0.0030681609            0   0.45471753    1.5007574    1.9585431    2.9716477 
 1565000   0.96526547 -1.6967697e-05   0.51668873 0.00073432997            0    0.5159544    1.4406587    1.9573474   0.78454024 
 1570000    1.0141478 -2.3443197e-05   0.43745625 0.0048554608            0   0.43260079    1.5136156    1.9510718   0.33067806 
 1575000   0.97642179 -3.2101386e-05   0.49030525 0.0086361588            0   0.48166909    1.4573095    1.9476148  -0.27123306 
 1580000   0.98244993 5.8438394e-05   0.45915682 0.0013387388            0   0.45781809    1.4663065    1.9254633    5.9647251 
 1585000   0.99264873 -3.5667627e-05   0.44425577 2.9130679e-05            0   0.44422664    1.4815282     1.925784   -0.5395624 
 1590000   0.99106502 2.0214111e-05   0.47234179            0            0   0.47234179    1.4791645    1.9515063    3.3487057 
 1595000    1.0007642 7.1603912e-06   0.45030233            0            0   0.45030233    1.4936406     1.943943    2.4388692 
 1600000    1.0021163 -4.2880948e-05   0.45346138 0.00071786771            0   0.45274351    1.4956586      1.94912   -1.0148111 
 1605000   0.98247376 -9.0127272e-06   0.47895759 0.0030500035            0   0.47590759    1.4663421    1.9452997      1.32234 
 1610000   0.97383201 -5.7401329e-05    0.4949386 0.0024902862            0   0.49244832    1.4534443    1.9483829    -2.019197 
 1615000   0.99541867 8.7157827e-05    0.4541934 0.0012108162            0   0.45298258    1.4856624    1.9398558    7.9642048 
 1620000    0.9694531 -5.1478576e-05    0.4782972  0.001283699            0    0.4770135    1.4469088     1.925206   -1.6329932 
 1625000   0.96655153 2.667048e-05   0.48681668 0.0048833354            0   0.48193334    1.4425782    1.9293948    3.7728584 
 1630000   0.98779082 -9.05971e-05   0.44999888 0.0053246468            0   0.44467423    1.4742778    1.9242767   -4.3377949 
 1635000    1.0129145 8.7163354e-05   0.42437102 0.0032178627            0   0.42115316    1.5117749    1.9361459    7.9608769 
 1640000   0.96762477 -1.5455552e-05    0.4781488 0.0064453374            0   0.47170347      1.44418    1.9223288   0.85404102 
 1645000   0.97829477 4.1997451e-06   0.48042274  0.013216969            0   0.46720577    1.4601049    1.9405277    2.2308141 
 1650000   0.97235325 -6.732526e-05   0.50088409 0.0081253156            0   0.49275878    1.4512372    1.9521213   -2.7014007 
 1655000   0.98424469 -1.8146571e-05   0.48872225 0.0030310197            0   0.48569123    1.4689852    1.9577075   0.70341645 
 1660000   0.94425813 -5.8361633e-05   0.55453207 0.0037652658            0   0.55076681    1.4093053    1.9638373   -2.0701188 
 1665000    1.0178497 -2.700415e-05      0.44709 0.0025035388            0   0.44458646    1.5191407    1.9662307  0.099703783 
 1670000   0.99312551 -6.874885e-06   0.46872275 0.00084328215            0   0.46787946    1.4822398    1.9509626    1.4757705 
 1675000   0.96401461 -4.1331756e-05   0.51728998 0.00050637065            0   0.51678361    1.4387918    1.9560818  -0.90076922 
 1680000   0.96533825 1.4571496e-05   0.49995088  0.002546839            0   0.49740404    1.4407673    1.9407182       2.9479 
 1685000   0.98075096 -9.1578448e-06   0.48035821  0.019460577            0   0.46089763    1.4637708     1.944129    1.3111388 
 1690000   0.96215046 -1.0700409e-05   0.51412674  0.010988906            0   0.50313784    1.4360096    1.9501363     1.210524 
 1695000   0.96957874 3.8230571e-05   0.51306004 0.0037843416            0    0.5092757    1.4470963    1.9601563    4.6026533 
 1700000    1.0097318 -3.1431913e-05   0.46230693 0.0033717422            0   0.45893518    1.5070248    1.9693317  -0.20324214 
 1705000   0.97121393 -1.1916696e-06   0.53926984   0.01406365            0   0.52520619    1.4495368    1.9888066    1.9064384 
 1710000    1.0149449 -6.4408878e-05   0.47208648 0.0087128948            0   0.46337359    1.5148053    1.9868918   -2.4650499 
 1715000    1.0690835 3.3880707e-06    0.4031406 0.0029412303            0   0.40019937    1.5956071    1.9987477    2.2329312 
 1720000   0.96661332 -3.9269553e-05    0.5360316 0.0073235913            0   0.52870801    1.4426704     1.978702  -0.73560949 
 1725000    1.0478615 -3.1830274e-06   0.42801952 0.0019651014            0   0.42605441    1.5639333    1.9919528    1.7719419 
 1730000    1.0020373 1.6734119e-05   0.48973794 0.0016420184            0   0.48809592    1.4955406    1.9852785    3.1419408 
 1735000    1.0387072 9.823141e-07   0.44748269 0.0017665437            0   0.44571615    1.5502706    1.9977533    2.0656508 
 1740000   0.99223825 2.599462e-05   0.48452523 0.0018132529            0   0.48271197    1.4809156    1.9654408    3.7621889 
 1745000   0.99964444 5.531626e-07   0.48888505 0.0028097105            0   0.48607534    1.4919693    1.9808544     2.019089 
 1750000    1.0128477 -1.9853828e-05   0.45483251 0.0031510922            0   0.45168142    1.5116751    1.9665076   0.59421104 
 1755000    1.0001503 -2.6322509e-05   0.49404113 0.0035119304            0    0.4905292    1.4927243    1.9867655   0.16735363 
 1760000    1.0352894 3.0187263e-05   0.44754029 0.0062883093            0   0.44125198    1.5451695    1.9927098    4.0792534 
 1765000     1.021382 4.5747722e-06   0.46969883 0.0085508497            0   0.46114798    1.5244127    1.9941115    2.3103198 
 1770000   0.99901949 -7.3396742e-06   0.53023298 0.0065598945            0   0.52367308    1.4910366    2.0212696    1.5139513 
 1775000    1.0129662 -4.2942686e-05   0.49574115 0.0099405016            0   0.48580065     1.511852    2.0075932   -0.9606053 
 1780000     1.037862 -3.7017458e-05   0.45981219  0.005288124            0   0.45452406     1.549009    2.0088212  -0.54982552 
 1785000    1.0315272 4.4367744e-05   0.47231889 0.0045185995            0    0.4678003    1.5395543    2.0118732    5.0785717 
 1790000    1.0345635 -7.6735224e-05   0.46242664 0.0089764248            0   0.45345021     1.544086    2.0065127    -3.297426 
 1795000    1.0209767 1.005874e-05   0.50172565 0.0083432449            0   0.49338241    1.5238078    2.0255335    2.7207936 
 1800000   0.98697022 -1.0588476e-05   0.54036627 0.0024063639            0   0.53795991    1.4730531    2.0134193    1.2815438 
 1805000    1.0083074 2.6465371e-05   0.49594295 0.0018267723            0   0.49411618    1.5048988    2.0008418    3.8301282 
 1810000    1.0271883 -1.3632961e-05   0.47537874 0.0070672199            0   0.46831152    1.5330786    2.0084573    1.0661471 
 1815000    1.0447948 4.0387003e-05   0.46511899 0.0087977305            0   0.45632126    1.5593562    2.0244752    4.8160248 
 1820000    1.0039947 -4.0465871e-05    0.5321322 0.0099068966            0    0.5222253    1.4984621    2.0305943  -0.76640676 
 1825000    1.0577844 -1.5948838e-05    0.4489732 0.0085423231            0   0.44043088    1.5787432    2.0277164   0.92533271 
 1830000      1.06551 -7.6307317e-06   0.44930806  0.011489592            0   0.43781846    1.5902737    2.0395818    1.5121456 
 1835000    1.0228197 -6.1787852e-05   0.52160247 0.0049374838            0   0.51666499    1.5265584    2.0481609   -2.2226154 
 1840000    1.0571046 7.2789132e-05   0.48646042 0.0035457814            0   0.48291464    1.5777286    2.0641891    7.0953739 
 1845000    1.0714321 -3.238061e-05   0.47257274  0.016845692            0   0.45572704    1.5991124    2.0716851  -0.16646267 
 1850000    1.0327081 -2.7923602e-05   0.51113284 0.0059979168            0   0.50513492    1.5413168    2.0524496   0.12237025 
 1855000    1.0452311 -3.5024725e-06   0.49657258  0.003383333            0   0.49318925    1.5600074      2.05658    1.8144891 
 1860000    1.0612606 -1.14642e-05   0.46596009 0.0025642246            0   0.46339586    1.5839315    2.0498916    1.2574861 
 1865000    1.0838198 -9.7229395e-07   0.45891295 0.0040386479            0    0.4548743     1.617601    2.0765139     2.009309 
 1870000    1.0369332 4.4515781e-05   0.53471965 0.0047651648            0   0.52995449    1.5476228    2.0823424    5.1592732 
 1875000    1.0358231 -6.3613882e-05    0.5305065  0.010127424            0   0.52037908     1.545966    2.0764725    -2.320519 
 1880000     1.063301 4.5723883e-06   0.49319975 0.0094458054            0   0.48375395    1.5869767    2.0801764    2.3962199 
 1885000    1.1024911 -2.3497019e-06    0.4383099 0.0030352532            0   0.43527465     1.645468    2.0837779    1.9213665 
 1890000    1.0575284 -9.4662425e-06   0.51365619 0.0056593023            0   0.50799689    1.5783612    2.0920174    1.4377107 
 1895000      1.01038 9.0983108e-05   0.58784778  0.011472979            0    0.5763748    1.5079922      2.09584    8.3845924 
 1900000    1.0954688 1.9159421e-05   0.44765073  0.010655669            0   0.43699506    1.6349872    2.0826379    3.4069371 
 1905000    1.0958412 -6.8873683e-06   0.46064638  0.014614941            0   0.44603144    1.6355429    2.0961893    1.6201344 
 1910000    1.0171946 9.7723799e-06   0.56775578   0.01179291            0   0.55596287    1.5181629    2.0859187    2.7613856 
 1915000    1.0004546 6.0844542e-05   0.59163141   0.01521201            0    0.5764194    1.4931785    2.0848099    6.2903847 
 1920000    1.0345535 -3.3707222e-05   0.52758467  0.011228456            0   0.51635621     1.544071    2.0716557   -0.2581875 
 1925000    1.0441652 -2.0752869e-05   0.50830337   0.01141205            0   0.49689132    1.5584166      2.06672   0.63228164 
 1930000    1.0755165 -3.3793689e-05   0.46968678   0.01235062            0   0.45733616    1.6052083    2.0748951  -0.26092471 
 1935000    1.0553658 3.3746443e-06    0.5009004  0.010453296            0   0.49044711    1.5751335    2.0760339    2.3092893 
 1940000    1.0655556 -4.6657282e-05   0.47198899  0.014461389            0    0.4575276    1.5903418    2.0623308   -1.1626205 
 1945000    1.0473871 4.3183596e-05   0.49599108  0.018384857            0   0.47760623    1.5632252    2.0592163    5.0440665 
 1950000    1.0540003 6.5899055e-05   0.46823756 0.0092131599            0    0.4590244    1.5730954     2.041333    6.5962757 
 1955000      1.03749 -6.6730705e-05   0.50562608 0.0059078316            0   0.49971825    1.5484539      2.05408   -2.5583464 
 1960000     1.053634 -4.3167071e-05   0.49175019 0.0035110176            0   0.48823917    1.5725487    2.0642989  -0.91940901 
 1965000   0.99989224 4.6580989e-06   0.58054806  0.013271245            0   0.56727682    1.4923392    2.0728872     2.394855 
 1970000    1.0164955 1.8187554e-05   0.55301738  0.016558398            0   0.53645898    1.5171195    2.0701369    3.3272607 
 1975000    1.0828737 -2.178871e-05   0.45445936 0.0066218771            0   0.44783749    1.6161891    2.0706484   0.56461282 
 1980000    1.0192628 -1.3373358e-05   0.53962816 0.0071064994            0   0.53252166    1.5212498    2.0608779    1.1365114 
 1985000    1.0070782 2.7234567e-07   0.56834815 0.0082970371            0   0.56005111    1.5030642    2.0714124    2.0902369 
 1990000    1.0166246 -1.4359462e-05   0.55804467   0.00418183            0   0.55386284    1.5173122    2.0753569    1.0828309 
 1995000     1.037626 -1.700293e-05   0.51999282  0.015783911            0   0.50420891    1.5486568    2.0686496   0.89340709 
 2000000    1.0334204 -4.6620196e-05   0.52289263 0.0085790097            0   0.51431362      1.54238    2.0652727   -1.1571153 
 2005000    1.0240691 3.1783311e-05      0.53289  0.011142147            0   0.52174785    1.5284231    2.0613131    4.2581755 
 2010000    1.0550712 -3.04815e-05   0.50593398 0.0046113235            0   0.50132265    1.5746938    2.0806278 -0.026253498 
 2015000    1.0306322 3.0451313e-05   0.53549239   0.00209904            0   0.53339335    1.5382186     2.073711    4.1785058 
 2020000    1.0343923 1.5620061e-05   0.53572941 0.0037981442            0   0.53193127    1.5438306      2.07956    3.1592186 
 2025000    1.0830398 -1.5960709e-05   0.46252424 0.0030465702            0   0.45947767    1.6164369    2.0789612   0.97575694 
 2030000    1.0791046 -3.1894241e-05   0.46352037 0.0032085799            0   0.46031179    1.6105637     2.074084  -0.13044593 
 2035000    1.0014997 -5.291623e-05   0.54268526  0.012144917            0   0.53054034    1.4947383    2.0374235   -1.6201463 
 2040000    1.0419373 -8.282192e-08   0.49541007  0.012078934            0   0.48333114    1.5550913    2.0505014    2.0447768 
 2045000    1.0007725 1.3482192e-05   0.55914938 0.0056068404            0   0.55354254     1.493653    2.0528024    2.9846915 
 2050000   0.98599208 2.4951419e-05   0.57740569   0.01113167            0   0.56627402    1.4715932    2.0489989     3.773641 
 2055000    1.0043166 -3.9978829e-05   0.54176026 0.0065746335            0   0.53518562    1.4989426    2.0407028  -0.72263385 
 2060000    1.0310061 -2.1131285e-05    0.5079185  0.012329544            0   0.49558896    1.5387766    2.0466951   0.58610071 
 2065000    1.0347034 -4.5469658e-05     0.490659 0.0077030883            0   0.48295591    1.5442948    2.0349538    -1.107909 
 2070000    1.0000951 2.9710124e-05   0.54719801 0.0070244754            0   0.54017354    1.4926419    2.0398399    4.0934037 
 2075000    1.0254974 -1.5734997e-05   0.49347602 0.0062693234            0    0.4872067    1.5305549    2.0240309   0.93642789 
 2080000   0.97348021 -0.00011435436   0.56201177 0.0049844227            0   0.55702735    1.4529192     2.014931   -5.8892427 
 2085000    1.0267191 -6.1581419e-05    0.4852958 0.0092425567            0   0.47605325    1.5323782     2.017674   -2.2388337 
 2090000    1.0585046 1.7284221e-05   0.45753647 0.0024850081            0   0.45505146    1.5798182    2.0373546      3.23204 
 2095000    1.0236681 -6.0652231e-08   0.51458195 0.0054648536            0   0.50911709    1.5278246    2.0424065    2.0382143 
 2100000   0.99958701 3.5153339e-05   0.55208877 0.0068165352            0   0.54527223    1.4918836    2.0439724    4.4737712 
 2105000    1.0363188 -5.20564e-06   0.49889372 0.0012431772            0   0.49765054    1.5467058    2.0455995    1.6857857 
 2110000    1.0749307 2.3244201e-05   0.43626582 0.00019291171            0   0.43607291     1.604334    2.0405999     3.647239 
 2115000    1.0325968 -6.7096558e-05   0.51978413 0.0014345584            0   0.51834957    1.5411506    2.0609348   -2.5767793 
 2120000    1.0354222 1.077163e-05    0.5308512 0.0013843531            0   0.52946684    1.5453677    2.0762189     2.820754 
 2125000    1.0384335 -7.2330943e-05   0.52053967 0.0065460976            0   0.51399357     1.549862    2.0704017   -2.9291131 
 2130000    1.0572092 9.8025314e-06   0.49168436 0.0070991316            0   0.48458522    1.5778847     2.069569      2.74712 
 2135000    1.0183546 3.5860328e-05   0.55228642 0.0011375441            0   0.55114888    1.5198942    2.0721806    4.5508465 
 2140000    1.0702404 6.6391971e-05   0.46920984 0.0038966048            0   0.46531323    1.5973338    2.0665437    6.6555567 
 2145000    1.0139131 -5.1488853e-05   0.53485517 0.0019000099            0   0.53295516    1.5132652    2.0481204   -1.5107891 
 2150000     1.014657 2.8815735e-05   0.51954037 0.0047413888            0   0.51479898    1.5143755    2.0339159    4.0256595 
 2155000    1.0216202 -1.1087171e-05   0.50127825  0.008040744            0    0.4932375    1.5247682    2.0260465    1.2597012 
 2160000    1.0371938 -7.4247426e-06   0.47350582 0.0036470358            0   0.46985879    1.5480118    2.0215176    1.5083194 
 2165000    1.0178721 1.3064894e-05   0.49727787 0.0055943754            0   0.49168349    1.5191742     2.016452    2.9194975 
 2170000    1.0411382 -2.3147661e-05   0.48640208 0.0058053282            0   0.48059675    1.5538988    2.0403009   0.44033458 
 2175000     1.003625 -3.1817506e-05   0.54811148 0.0057521627            0   0.54235932    1.4979103    2.0460217  -0.15320428 
 2180000    1.0243811 -4.2141384e-06   0.52399258 0.0075583703            0   0.51643421    1.5288889    2.0528814    1.7616002 
 2185000    1.0626065 6.5714669e-05   0.46368868  0.023270441            0   0.44041824    1.5859402    2.0496289    6.5918268 
 2190000   0.99832334 -9.8643306e-05   0.54497121 0.0051062962            0   0.53986491    1.4899976    2.0349688   -4.7832565 
 2195000   0.99197065 8.8800892e-06   0.53782265 0.0045445214            0   0.53327813    1.4805162    2.0183388    2.6321306 
 2200000    1.0431534 2.8759065e-05   0.45484516 0.0013828299            0   0.45346233    1.5569065    2.0117516    3.9995782 
 2205000    1.0388588 -1.3731812e-05   0.45585274 0.0031262573            0   0.45272649    1.5504967    2.0063495    1.0572066 
 2210000   0.97021017 4.0125333e-06   0.55354566 0.0073722554            0    0.5461734    1.4480387    2.0015843    2.2789306 
 2215000   0.98847586 -3.5793346e-05     0.526937 0.0060677224            0   0.52086928    1.4753002    2.0022372  -0.47179888 
 2220000    1.0358119 -1.9589158e-06   0.46360386 0.0039841907            0   0.45961967    1.5459493    2.0095531    1.8741529 
 2225000    1.0113993 7.9265632e-06   0.50190264 0.0067793006            0   0.49512334    1.5095135    2.0114161    2.5593001 
 2230000   0.99138368 -9.5625723e-05   0.54133497 0.0073094263            0   0.53402554    1.4796401    2.0209751   -4.5886749 
 2235000    1.0143541 1.6158237e-05   0.50749373 0.0067769316            0    0.5007168    1.5139235    2.0214172    3.1382746 
 2240000    1.0465665 -2.5244057e-05   0.46580662 0.0064737376            0   0.45933288    1.5620005    2.0278071   0.28293784 
 2245000    1.0581006 3.7758559e-05   0.45495111 0.0018193976            0   0.45313171    1.5792151    2.0341662    4.6440378 
 2250000    1.0239119 -2.0264746e-05   0.50888607 0.00097695886            0   0.50790911    1.5281885    2.0370746   0.63637531 
 2255000    1.0337708 -4.1857841e-05   0.48399314 0.0022638344            0   0.48172931    1.5429029     2.026896  -0.86631789 
 2260000    1.0365937 -6.1658812e-05   0.47889896 0.0038226715            0   0.47507629     1.547116     2.026015   -2.2358421 
 2265000   0.98746361 -9.2379364e-07   0.53849055 0.0055327683            0   0.53295778    1.4737894      2.01228    1.9484274 
 2270000    1.0560096 1.0983517e-05   0.45147025 0.0012934326            0   0.45017682    1.5760943    2.0275645    2.7867452 
 2275000    1.0468066 8.1743283e-06   0.47360246  0.012787148            0   0.46081531    1.5623589    2.0359613    2.6009709 
 2280000    1.0079348 4.6150032e-05   0.51631198  0.018139451            0   0.49817253    1.5043427    2.0206547    5.2105449 
 2285000    1.0263481 -2.495523e-05    0.4725869 0.0064392138            0   0.46614768    1.5318245    2.0044114   0.27950596 
 2290000     1.059129 3.8702671e-05   0.44200875 0.0022213817            0   0.43978737      1.58075    2.0227587    4.6978873 
 2295000    1.0377529 -3.9253712e-05   0.47549485 0.0030078673            0   0.47248699    1.5488462    2.0243411  -0.68887554 
 2300000   0.98430377 1.6246713e-06   0.56032581 0.0023691143            0   0.55795669    1.4690734    2.0293992    2.1416965 
 2305000    1.0149307 -7.0335908e-05   0.49096766 0.0023204266            0   0.48864723    1.5147841    2.0057517   -2.8558662 
 2310000    1.0097279 7.0176014e-08   0.49473348 0.0028724478            0   0.49186103    1.5070189    2.0017524    2.0066029 
 2315000    1.0458141 -4.9618989e-05   0.45256106 0.0059721349            0   0.44658892    1.5608775    2.0134386   -1.4162259 
 2320000   0.95278839 4.9291252e-06   0.57227032 0.0080769054            0   0.56419341    1.4220367     1.994307    2.3350081 
 2325000   0.97804819 -2.631458e-05   0.52451428 0.0089043021            0   0.51560997    1.4597369    1.9842512    0.1653874 
 2330000   0.98911095 4.6232219e-05   0.50759456 0.0084120474            0   0.49918252    1.4762481    1.9838427    5.1794136 
 2335000   0.99118443 9.5757309e-06   0.48967299 0.0060468548            0   0.48362613    1.4793428    1.9690157    2.6308903 
 2340000   0.94685926 -2.5830388e-05    0.5596158 0.0032610784            0   0.55635472    1.4131875    1.9728032   0.18740685 
 2345000    1.0159934 -1.3071623e-05   0.46162625 0.0025441952            0   0.45908206    1.5163701    1.9779964    1.0744858 
 2350000    1.0345264 -3.889172e-05   0.45365989 0.0016126136            0   0.45204728    1.5440307    1.9976906   -0.6905051 
 2355000   0.98862766 -1.9516912e-05   0.51003332 0.0078778646            0   0.50215545    1.4755268    1.9855601   0.63655113 
 2360000   0.99601628 4.1995424e-05   0.47898868  0.017351127            0   0.46163755    1.4865543     1.965543    4.8682667 
 2365000   0.94247544 -1.4878075e-05   0.54144038 0.0092884611            0   0.53215192    1.4066446     1.948085   0.91971246 
 2370000   0.94100377 -3.7141476e-05    0.5339933 0.0088100281            0   0.52518327    1.4044481    1.9384414  -0.62877736 
 2375000   0.97278002 3.490425e-07   0.48532067 0.0037119142            0   0.48160875    1.4518742    1.9371949    1.9613207 
 2380000   0.95576117  9.88723e-06   0.50262257 0.0068735367            0   0.49574903    1.4264736    1.9290961    2.6125015 
 2385000   0.94279822 4.8947221e-07   0.51086072  0.011407418            0    0.4994533    1.4071264    1.9179871    1.9518194 
 2390000   0.92770475 4.8998949e-05   0.52312607  0.016279226            0   0.50684684    1.3845993    1.9077254    5.2945328 
 2395000   0.96881521 -4.4490006e-06   0.47129912 0.0096953847            0   0.46160373    1.4459567    1.9172558    1.6097409 
 2400000   0.92080452 -2.9802595e-05    0.5358202 0.0087774931            0   0.52704271    1.3743007     1.910121  -0.14983444 
 2405000   0.94596068 -3.1140773e-06   0.50620295  0.015591159            0   0.49061179    1.4118463    1.9180493    1.7028042 
 2410000   0.94931051 6.9999063e-06   0.49837372  0.016055377            0   0.48231834    1.4168459    1.9152196    2.3990532 
 2415000   0.95802409 4.0016104e-05   0.49696855  0.010553223            0   0.48641533     1.429851    1.9268195    4.6927326 
 2420000    0.9488468 3.0422275e-05   0.51166291 0.0042270224            0   0.50743588    1.4161539    1.9278168    4.0306044 
 2425000   0.94501177 -7.357989e-06   0.50252051  0.010200523            0   0.49231999    1.4104301    1.9129506    1.4043664 
 2430000   0.94092725 6.8742872e-07   0.49497676   0.01930333            0   0.47567343    1.4043339    1.8993107    1.9468258 
 2435000    0.9437307 6.3955618e-06   0.51300863   0.01965958            0   0.49334905    1.4085181    1.9215267    2.3635879 
 2440000   0.95564086 -3.1906583e-05   0.49585807 0.0046787497            0   0.49117932     1.426294     1.922152  -0.28323095 
 2445000   0.90488549 -4.251419e-05   0.56988468 0.0039035665            0   0.56598111    1.3505416    1.9204263   -1.0181545 
 2450000   0.91965033 2.0162095e-05   0.53556383 0.0035344705            0   0.53202936    1.3725781    1.9081419    3.3017459 
 2455000   0.93445935 -5.4661591e-05   0.51178175 0.0027876417            0    0.5089941    1.3946806    1.9064623   -1.8717468 
 2460000    0.9315265 -9.6321227e-06   0.51051196 0.0087023414            0   0.50180962    1.3903033    1.9008153    1.2350429 
 2465000   0.89197484 -6.1836136e-05   0.55143555  0.010838629            0   0.54059692    1.3312724     1.882708   -2.3914057 
 2470000   0.93301379 -1.4506482e-05   0.48469084  0.014298966            0   0.47039187    1.3925231    1.8772139   0.87452589 
 2475000   0.90884217 2.0077482e-06    0.5082241  0.020159686            0   0.48806441    1.3564469     1.864671    2.0034466 
 2480000   0.89665976 -2.2080646e-05    0.5226963 0.0064748512            0   0.51622145    1.3382647     1.860961   0.33474675 
 2485000   0.89442847 -2.9157227e-05    0.5290154 0.0071227139            0   0.52189268    1.3349345    1.8639499  -0.15139767 
 2490000   0.97183663 5.5988954e-06   0.40515442 0.0031243465            0   0.40203007    1.4504662    1.8556206    2.2426162 
 2495000   0.88540501 4.827995e-06   0.52479765 0.0037335667            0   0.52106408     1.321467    1.8462646    2.1799756 
 2500000   0.92274005 2.0388529e-05   0.45876884  0.015393396            0   0.44337544    1.3771895    1.8359584    3.2452135 
 2505000   0.89943291 -2.2021701e-06   0.50365212  0.026682589            0   0.47696954    1.3424036    1.8460557    1.6938417 
 2510000   0.85881436 -1.7216423e-05   0.55243256  0.012548975            0   0.53988359    1.2817804     1.834213   0.64421381 
 2515000   0.88270138 -3.6622372e-05   0.51937811  0.013373536            0   0.50600458    1.3174318    1.8368099  -0.69452842 
 2520000   0.91496503 2.3144643e-06   0.46627644  0.010294417            0   0.45598202    1.3655853    1.8318617    1.9918375 
 2525000   0.86233942 -1.0892961e-05   0.55113236 0.0072972714            0   0.54383509    1.2870416    1.8381739    1.0852525 
 2530000    0.8742587 -2.6791179e-07   0.52855312 0.0040719345            0   0.52448119    1.3048311    1.8333842    1.8148662 
 2535000   0.89499627 1.2642107e-07   0.48837638 0.0035467232            0   0.48482965    1.3357819    1.8241583    1.8328965 
 2540000   0.90428042 -5.9207061e-07   0.49221741  0.017313271            0   0.47490414    1.3496385    1.8418559     1.800932 
 2545000   0.91109945 -2.8440731e-06   0.48222542  0.011042227            0    0.4711832    1.3598159    1.8420414     1.645459 
 2550000   0.88312306 -3.7401055e-05   0.54385106  0.012475281            0   0.53137578    1.3180612    1.8619122  -0.72324872 
 2555000   0.90650965 -4.1442314e-05   0.52714961  0.024211249            0   0.50293836    1.3529657    1.8801153  -0.98437745 
 2560000   0.89793994 -7.3337271e-06   0.54481254   0.01330842            0   0.53150412    1.3401754    1.8849879    1.3780807 
 2565000   0.90165718 4.3884413e-05   0.53294044 0.0035977432            0    0.5293427    1.3457233    1.8786638    4.9119544 
 2570000   0.92518639 -5.9725003e-05   0.51518724 0.0088173934            0   0.50636985    1.3808407    1.8960279   -2.2321643 
 2575000   0.89970289 -2.8133069e-05   0.53751806 0.0089302663            0   0.52858779    1.3428066    1.8803246 -0.064233076 
 2580000   0.92376529 1.6582823e-05   0.51528585 0.0050020882            0   0.51028376    1.3787197    1.8940055    3.0402102 
 2585000   0.95919722 3.2298775e-05   0.46224238 0.0057956174            0   0.45644677    1.4316019    1.8938442    4.1263356 
 2590000   0.94213759 5.2167337e-05    0.4903627 0.0059715117            0   0.48439119    1.4061404     1.896503    5.5023094 
 2595000   0.95137536 5.4586918e-05   0.45782917 0.0061358884            0   0.45169329    1.4199277    1.8777569    5.6508047 
 2600000   0.87693287 5.1485575e-05   0.56445298 0.0040409286            0   0.56041205    1.3088223    1.8732753    5.4319582 
 2605000   0.93943772 -5.1924167e-05    0.4750194 0.0027482111            0   0.47227119    1.4021108    1.8771302   -1.7118682 
 2610000   0.93316539 -1.2570669e-05   0.50240484  0.010258679            0   0.49214616    1.3927494    1.8951542    1.0262696 
 2615000   0.93631728 2.7433473e-05   0.51066824  0.021280717            0   0.48938753    1.3974535    1.9081218    3.8043235 
 2620000   0.93305993 7.4796369e-06   0.50765394  0.011662322            0   0.49599162    1.3925919    1.9002459    2.4172384 
 2625000   0.96970289 1.9197829e-05   0.45504974 0.0051161899            0   0.44993355    1.4472816    1.9023313    3.2292853 
 2630000   0.95327002 -3.0740576e-05   0.49945851 0.0070677534            0   0.49239076    1.4227555     1.922214  -0.20257459 
 2635000    0.9419999 2.4745014e-05   0.52133138  0.016194491            0   0.50513689    1.4059348    1.9272662    3.6376416 
 2640000   0.89098256 -1.8100703e-05    0.5954105  0.024278681            0   0.57113182    1.3297915     1.925202   0.67408139 
 2645000   0.92425659 2.1273256e-06   0.51247448  0.014608397            0   0.49786608     1.379453    1.8919274    2.0389682 
 2650000   0.84510819 -5.508312e-05   0.63475137  0.013371663            0   0.62137971     1.261324    1.8960753   -1.9112699 
 2655000   0.95200571 -5.6289166e-05   0.49018207 0.0031409124            0   0.48704116    1.4208685    1.9110506   -1.9796566 
 2660000   0.95528673 -1.8692776e-06   0.49216428 0.0010717199            0   0.49109256    1.4257654    1.9179297    1.7887253 
 2665000   0.94932423 2.5268184e-05   0.49819248 0.0015207052            0   0.49667177    1.4168664    1.9150589    3.6615957 
 2670000   0.96692793 2.3664511e-06   0.47538766 0.0097909672            0   0.46559669    1.4431399    1.9185276    2.0820967 
 2675000   0.94212717 -3.8275091e-05   0.50607763 0.0080972224            0   0.49798041    1.4061248    1.9122024  -0.73337185 
 2680000   0.92683552 1.3243746e-05   0.53037501 0.0043811547            0   0.52599386     1.383302     1.913677    2.8290848 
 2685000   0.95048328 2.2822722e-05   0.49508792 0.0082416954            0   0.48684622    1.4185963    1.9136842    3.4911908 
 2690000    0.9224404 -4.1228263e-05   0.52976126    0.0180123            0   0.51174896    1.3767423    1.9065036  -0.94319395 
 2695000   0.92591634 -3.051354e-05    0.5466741  0.045055431            0   0.50161867    1.3819301    1.9286042  -0.18049168 
 2700000   0.94674555 -4.8205705e-05   0.51903911  0.021515522            0   0.49752358    1.4130177    1.9320568   -1.3999215 
 2705000   0.95707731 9.1333962e-05   0.48800655  0.003999238            0   0.48400731    1.4284379    1.9164444    8.2294479 
 2710000   0.95071125 -1.1131719e-05   0.48839341 0.0016726675            0   0.48672075    1.4189365      1.90733    1.1379055 
 2715000   0.93367783 9.0965411e-06   0.50861869 0.0019186647            0   0.50670003    1.3935142    1.9021329    2.5308858 
 2720000   0.91809272 3.1836776e-05   0.52790138 0.0030396002            0   0.52486178    1.3702534    1.8981548    4.0987127 
 2725000   0.92590364 2.0348362e-05   0.53442252 0.0035181755            0   0.53090435    1.3819112    1.9163337    3.3228125 
 2730000   0.97217556 -5.5921582e-06   0.45976471 0.0040277277            0   0.45573699     1.450972    1.9107367    1.5242068 
 2735000   0.96163751 2.7240101e-06   0.46837213 0.0058426884            0   0.46252945     1.435244    1.9036161    2.0918997 
 2740000   0.91491799 6.0716555e-06    0.5435069  0.015760725            0   0.52774617    1.3655151     1.909022    2.3286948 
 2745000   0.96117177 -1.3488915e-05   0.48016579  0.020014211            0   0.46015158    1.4345489    1.9147147   0.98236083 
 2750000   0.94270488 -1.0928742e-05   0.49047374 0.0032274953            0   0.48724625     1.406987    1.8974608    1.1420662 
 2755000   0.95499854 3.0270552e-05   0.46106367 0.0013735212            0   0.45969015    1.4253353     1.886399    3.9786995 
 2760000   0.94750784 -3.1386686e-05   0.47355198 0.0065303264            0   0.46702166    1.4141554    1.8877074  -0.28174034 
 2765000   0.93237588 8.4606726e-07   0.50216198 0.0080098048            0   0.49415218     1.391571     1.893733    1.9522131 
 2770000   0.94170047 6.8114153e-05   0.49042229  0.015941343            0   0.47448095    1.4054879    1.8959102    6.6039605 
 2775000    0.9281793 -1.7174134e-06   0.49266999  0.010225525            0   0.48244447    1.3853076    1.8779776      1.75927 
 2780000   0.92707419 4.4839483e-06   0.50144927  0.018985929            0   0.48246334    1.3836582    1.8851075     2.195038 
 2785000   0.90294261 -3.4736953e-05   0.52313434  0.016759509            0   0.50637483    1.3476418    1.8707762  -0.53024197 
 2790000   0.88841114 -4.0094277e-05   0.54651167  0.020357466            0   0.52615421    1.3259536    1.8724653  -0.89885115 
 2795000   0.96477127 2.7585682e-05   0.45748586  0.007451272            0   0.45003459    1.4399211     1.897407    3.8041294 
 2800000   0.89564476 -3.0398946e-06   0.55142201 0.0092026087            0   0.54221941    1.3367498    1.8881718    1.6780543 
 2805000   0.89760297 4.2063441e-05   0.54916753 0.0036843142            0   0.54548321    1.3396724      1.88884     4.796265 
 2810000   0.92739363 -5.1288917e-05   0.48701995 0.0049952897            0   0.48202466     1.384135    1.8711549    -1.673935 
 2815000   0.94042834 -4.6843183e-05   0.46485388  0.010500339            0   0.45435354    1.4035893    1.8684432   -1.3693576 
 2820000   0.95088622 -8.911676e-06   0.44762012 0.0083287371            0   0.43929138    1.4191977    1.8668178    1.2508428 
 2825000   0.91875625 2.786226e-05   0.49635337 0.0049134572            0   0.49143991    1.3712437    1.8675971    3.7934365 
 2830000   0.87242803 -1.1091198e-05    0.5660164 0.0079868477            0   0.55802955    1.3020988    1.8681152    1.1014917 
 2835000   0.92050604 -3.2258221e-05   0.49840094  0.008626132            0    0.4897748    1.3738553    1.8722562  -0.35743201 
 2840000   0.90387713 1.0537327e-05   0.53928299  0.020927543            0   0.51835544    1.3490366    1.8883196    2.6166597 
 2845000   0.88607192 5.9570299e-06   0.54892806 0.0082623378            0   0.54066572    1.3224623    1.8713904    2.2831403 
 2850000   0.93081375 -3.2765971e-06   0.48848886 0.0018246637            0   0.48666419    1.3892395    1.8777284      1.65125 
 2855000   0.94639949 -5.3018424e-05    0.4690413 0.0045580489            0   0.46448326    1.4125012    1.8815425   -1.7830909 
 2860000   0.93840932 -2.4911793e-06   0.48124724  0.021817867            0   0.45942937    1.4005759    1.8818231    1.7096328 
 2865000   0.93424225 2.1691826e-05   0.50418996  0.018734231            0   0.48545573    1.3943566    1.8985465    3.3978855 
 2870000   0.94328293 -2.9040808e-05   0.48785015  0.002629331            0   0.48522082    1.4078498    1.8956999  -0.11160072 
 2875000   0.92900428 5.1935191e-05   0.52022472 0.0025597736            0   0.51766495    1.3865389    1.9067636     5.496524 
 2880000   0.94960322 7.3525053e-05   0.50501632 0.0058814537            0   0.49913487    1.4172828    1.9222991    7.0043508 
 2885000   0.92232856 -2.4222328e-05   0.52338599  0.016048117            0   0.50733787    1.3765754    1.8999614   0.22571405 
 2890000   0.93939032 -7.9261107e-06    0.4901235  0.013509127            0   0.47661437    1.4020401    1.8921636    1.3443108 
 2895000   0.89366413 -2.7094879e-05   0.54173357 0.0014132504            0   0.54032032    1.3337937    1.8755273 0.0027292407 
 2900000   0.94927845 -3.8401169e-05     0.457896 0.0016141611            0   0.45628184    1.4167981    1.8746941  -0.77959473 
 2905000   0.98333484 6.2713553e-06   0.41318443 0.0014280589            0   0.41175637    1.4676272    1.8808117    2.3142878 
 2910000   0.90375962 -2.6332524e-05   0.53850214 0.0091918841            0   0.52931026    1.3488612    1.8873634  0.067259283 
 2915000   0.93372031 1.5750108e-05   0.48371101 0.0068590465            0   0.47685196    1.3935776    1.8772886     2.965936 
 2920000    0.9284999 -1.0686685e-05   0.48625688  0.012566811            0   0.47369007    1.3857861     1.872043    1.1333793 
 2925000   0.91887828 1.3856943e-05   0.50099301  0.013183911            0    0.4878091    1.3714258    1.8724188    2.8302107 
 2930000   0.91697112 -2.6597322e-05   0.49612511 0.0039624021            0   0.49216271    1.3685794    1.8647045  0.026297594 
 2935000   0.97472829 2.8387294e-05    0.4015092 0.00050517563            0   0.40100403     1.454782    1.8562912     3.818421 
 2940000   0.92215651 2.9084399e-05   0.47357674  0.001154593            0   0.47242215    1.3763186    1.8498953     3.860209 
 2945000   0.89740787 1.3336005e-06   0.51992963 0.0091577515            0   0.51077188    1.3393812    1.8593109    1.9514893 
 2950000   0.93608626 -1.9790696e-05   0.46244766   0.01798403            0   0.44446363    1.3971087    1.8595564   0.49162347 
 2955000   0.93383673 6.3032201e-05   0.47030867  0.016912143            0   0.45339653    1.3937513      1.86406    6.2208457 
 2960000    0.9290499 -2.6593603e-05   0.48444404  0.028719783            0   0.45572425     1.386607     1.871051  0.032901211 
 2965000   0.92640487 -3.323448e-05   0.50311263  0.010962103            0   0.49215052    1.3826593    1.8857719  -0.41139536 
 2970000   0.91735636 -3.3094189e-05    0.5147966  0.023437421            0   0.49135918    1.3691544     1.883951  -0.40351941 
 2975000   0.97643739 1.3532551e-05    0.4139422   0.02486331            0   0.38907889    1.4573328     1.871275    2.8066449 
 2980000   0.94159919 -2.6615735e-05   0.46551101 0.0052525356            0   0.46025848    1.4053368    1.8708478  0.031168182 
 2985000   0.97943443 1.4500956e-05   0.42688276 0.0045278112            0   0.42235494    1.4618059    1.8886886    2.8909947 
 2990000   0.96157347 7.6649762e-06   0.46641521 0.0078617957            0   0.45855342    1.4351484    1.9015636    2.4313668 
[...]
19285000    1.1327151 1.9744055e-05   0.61211781  0.020139335            0   0.59197848    1.6905773    2.3026951    3.6674042 
19290000    1.1699185 2.1351267e-05   0.56625494  0.011964936            0   0.55429001    1.7461034    2.3123583    3.7881579 
19295000    1.1039819 2.3236363e-05   0.65362539 0.0043819692            0   0.64924342     1.647693    2.3013184    3.9074158 
19300000    1.1614124 -1.8632895e-06   0.56736236 0.0054978262            0   0.56186454    1.7334081    2.3007704    2.1719799 
19305000    1.0884197 -2.4334005e-05   0.67853894  0.011478456            0   0.66706048    1.6244664    2.3030054   0.62103893 
19310000    1.1259258 3.3304249e-05    0.6309364 0.0090146848            0   0.62192172    1.6804442    2.3113806    4.6133703 
19315000    1.1418823 1.5428198e-06   0.57275891  0.027972081            0   0.54478683    1.7042594    2.2770183     2.383658 
19320000    1.0838202 3.9764307e-05   0.64010478  0.043918383            0    0.5961864    1.6176017    2.2577064    5.0062153 
19325000    1.1246948 8.7001662e-05   0.59387833  0.024827338            0   0.56905099     1.678607    2.2724853    8.2860402 
19330000    1.0531785 -2.4279799e-05    0.6975043  0.033061199            0   0.66444311    1.5718689    2.2693732   0.59115352 
19335000    1.1932945 -3.4746171e-05   0.48834509  0.013895593            0   0.47444949    1.7809921    2.2693372  -0.13231812 
19340000    1.0846492 -5.4766858e-05    0.6563047  0.012284173            0   0.64402052    1.6188389    2.2751436   -1.5103417 
19345000    1.1115797 -9.0043095e-06    0.6170452  0.035275039            0   0.58177016    1.6590327    2.2760779    1.6537001 
19350000    1.1448094 1.7816185e-05   0.57659318  0.021896214            0   0.55469697     1.708628    2.2852212    3.5166759 
19355000    1.1454206 4.9505343e-06   0.57825949  0.026351091            0    0.5519084    1.7095403    2.2877998    2.6299807 
19360000     1.098913 -1.1069996e-05   0.64435388  0.042337782            0   0.60201609    1.6401276    2.2844815    1.5193234 
19365000    1.0816252 -3.668816e-05    0.6557218  0.032290854            0   0.62343094    1.6143256    2.2700474  -0.26583825 
19370000    1.1464611 -5.4492484e-06   0.55823667  0.012780459            0   0.54545621    1.7110932    2.2693298    1.8926778 
19375000    1.1145761 -1.7162759e-05   0.62307902  0.017205891            0   0.60587313    1.6635048    2.2865838    1.1002939 
19380000    1.1559032  3.12914e-06   0.54666591  0.018894963            0   0.52777095    1.7251855    2.2718514    2.4881376 
19385000    1.1109222 -2.3421778e-05   0.62229383  0.027118515            0   0.59517531    1.6580513    2.2803452   0.66143185 
19390000    1.1141257 -1.3938159e-05   0.59872827  0.037086039            0   0.56164224    1.6628326    2.2615608    1.2981553 
19395000    1.1230709 1.5900715e-05   0.60652261  0.049578497            0   0.55694411    1.6761833    2.2827059    3.3817633 
19400000    1.1273174 -1.8629631e-05    0.5996769  0.038166484            0   0.56151042    1.6825212    2.2821981   0.99451802 
19405000    1.1234756 -1.8492749e-05   0.61292147  0.020554765            0   0.59236671    1.6767873    2.2897088      1.01149 
19410000     1.169718 1.7178037e-05   0.54985884  0.014866218            0   0.53499262    1.7458041    2.2956629    3.4830088 
19415000    1.1063845 -5.7981463e-05   0.62927358  0.022083395            0   0.60719018    1.6512788    2.2805524   -1.7271263 
19420000    1.0901457 2.8845884e-05   0.64774069  0.024077848            0   0.62366284    1.6270424    2.2747831    4.2686106 
19425000     1.134364 -1.3134192e-05   0.58226083  0.026458108            0   0.55580272    1.6930383    2.2752992    1.3674638 
19430000    1.1045365 4.2517721e-05   0.61215675   0.04147484            0   0.57068191    1.6485207    2.2606774    5.1995023 
19435000    1.1430237 0.0001089055   0.55672896 0.0069754323            0   0.54975353    1.7059629    2.2626918    9.7902403 
19440000      1.10162 2.8296301e-05    0.6337087  0.028542873            0   0.60516583    1.6441679    2.2778766    4.2337169 
19445000    1.1089887 -1.7808027e-06    0.6272979  0.057638582            0   0.56965932    1.6551657    2.2824636    2.1593745 
19450000    1.1069794 1.541044e-05   0.63493439  0.038509327            0   0.59642506    1.6521667    2.2871011    3.3522707 
19455000    1.1127828 -3.401619e-05   0.61254387  0.015828854            0   0.59671502    1.6608283    2.2733722 -0.077826859 
19460000    1.1134659 -7.6651849e-06   0.61996988  0.020991336            0   0.59897855    1.6618479    2.2818178    1.7520002 
19465000    1.1763648 3.1701368e-05   0.54950734  0.013892774            0   0.53561457    1.7557244    2.3052318    4.4964303 
19470000     1.126487 1.2308357e-06   0.64136624  0.021736463            0   0.61962978    1.6812818    2.3226481    2.4077234 
19475000    1.1184199 4.2362191e-06   0.64981872  0.017112567            0   0.63270615    1.6692417    2.3190604    2.6118678 
19480000    1.1645272 1.9518499e-05   0.59051306   0.03351089            0   0.55700217    1.7380568    2.3285698    3.6776885 
19485000    1.2103527 5.3561488e-05   0.52312412  0.049780896            0   0.47334322    1.8064514    2.3295755    6.0317456 
19490000    1.1838183 6.3186979e-05   0.57764619  0.022263781            0   0.55538241    1.7668488     2.344495     6.711979 
19495000    1.1318383 6.4414237e-05   0.66619575  0.012347868            0   0.65384788    1.6892686    2.3554644    6.8077765 
19500000    1.1347838 2.9899939e-05   0.65665721  0.027670215            0   0.62898699    1.6936648     2.350322    4.4170057 
19505000    1.1517277 -3.8985492e-05   0.64049488  0.016464942            0   0.62402994    1.7189536    2.3594484  -0.33522874 
19510000    1.1839244 -4.5970898e-05   0.59219053  0.013859179            0   0.57833135    1.7670071    2.3591976  -0.81831082 
19515000    1.1930612 -4.5432315e-06   0.58124322 0.0077729055            0   0.57347032    1.7806439    2.3618871     2.047859 
19520000    1.1511346 -2.0672397e-05   0.65956492  0.024690726            0   0.63487419    1.7180684    2.3776333   0.94875724 
19525000    1.1581188 -5.1684508e-05   0.65925235  0.022886171            0   0.63636618    1.7284923    2.3877446   -1.1846886 
19530000    1.1824128 -3.9630967e-05   0.61114955  0.019689212            0   0.59146034    1.7647512    2.3759007  -0.36339169 
19535000    1.1776744 1.8273397e-05   0.61727334  0.028501467            0   0.58877188    1.7576791    2.3749524    3.6380096 
19540000    1.1654206 6.0219964e-05   0.62830395  0.018993043            0   0.60931091    1.7393903    2.3676943    6.5300982 
19545000    1.2105614 -3.2002715e-06   0.54873775  0.022397921            0   0.52633983    1.8067629    2.3555006    2.1342979 
19550000    1.1886765 -1.9873704e-05   0.59142753  0.013084543            0   0.57834298    1.7740997    2.3655272   0.99185675 
19555000    1.1523602 3.995165e-05   0.63633899  0.011525304            0   0.62481369    1.7198976    2.3562366    5.1176946 
19560000    1.1050889 3.5643358e-05   0.69383641  0.012728155            0   0.68110825    1.6493452    2.3431816    4.8068505 
19565000    1.1843817 -7.4559786e-06   0.58087238  0.033635566            0   0.54723681    1.7676897    2.3485621    1.8332048 
19570000    1.1603627 -1.604152e-05   0.62342377  0.039911808            0   0.58351196    1.7318414    2.3552651    1.2464753 
19575000    1.1128313 -2.552558e-05    0.6908512  0.040233852            0   0.65061735    1.6609007    2.3517519   0.58742383 
19580000    1.1183045 -4.0955732e-05   0.69847101  0.024953587            0   0.67351743    1.6690695    2.3675405  -0.46331964 
19585000    1.1807104 1.420125e-05   0.60406082   0.03327898            0   0.57078184    1.7622102     2.366271    3.3478615 
19590000    1.1634747 -3.5960188e-05   0.64476255   0.03378709            0   0.61097546     1.736486    2.3812485   -0.1043197 
19595000    1.1919059 -4.1089274e-05   0.61315207  0.013469326            0   0.59968275    1.7789195    2.3920716  -0.44801907 
19600000    1.1723468 -3.190239e-05   0.63927536  0.031651342            0   0.60762402    1.7497276     2.389003    0.1839098 
19605000    1.1805153 -2.1158414e-05   0.61631202  0.030257283            0   0.58605473    1.7619191    2.3782311    0.9157615 
19610000    1.1261629 -2.58898e-05   0.67753272 0.0053421456            0   0.67219057    1.6807981    2.3583308   0.56882783 
19615000    1.1158171 -2.9028268e-05   0.69119395  0.013382408            0   0.67781154     1.665357    2.3565509   0.35011703 
19620000    1.1394785 1.0254285e-05   0.65288932  0.016521447            0   0.63636787    1.7006717     2.353561    3.0623372 
19625000    1.1766711 7.5956471e-06   0.57778558  0.010204683            0    0.5675809    1.7561816    2.3339672    2.8589783 
19630000    1.1697381 1.2113803e-06   0.58815739  0.012518112            0   0.57563928     1.745834    2.3339914     2.417722 
19635000    1.0916208 2.0046323e-06   0.70148544  0.048946093            0   0.65253935     1.629244    2.3307295    2.4692896 
19640000    1.1627468 -1.6008145e-05   0.58945096  0.027738069            0   0.56171289    1.7353996    2.3248506    1.2183676 
19645000    1.1492655 3.1263678e-05   0.60197399  0.022783252            0   0.57919073    1.7152788    2.3172528    4.4781982 
19650000     1.115154 6.5811896e-06   0.67760577  0.066407157            0   0.61119861    1.6643673    2.3419731    2.7968649 
19655000    1.1340003 -2.854297e-05    0.6359644  0.031628992            0   0.60433541    1.6924954    2.3284598   0.35556972 
19660000    1.1030034 -1.1756112e-05   0.66180826  0.062754122            0   0.59905414    1.6462325    2.3080408    1.4954583 
19665000     1.125232 -3.1192105e-05   0.63388259  0.018182169            0   0.61570042    1.6794088    2.3132914   0.15729307 
19670000    1.0892145 -1.5333981e-05   0.67803855  0.013338934            0   0.66469962    1.6256526    2.3036911    1.2438064 
19675000    1.1328636 -2.4630977e-05   0.62456951  0.018508237            0   0.60606127    1.6907989    2.3153684   0.61287531 
19680000    1.1798905 -5.3022247e-05   0.56858782   0.01013224            0   0.55845558    1.7609866    2.3295745   -1.3353232 
19685000    1.1262185 2.4863297e-05   0.64912019 0.0087394118            0   0.64038078    1.6808811    2.3300013    4.0485524 
19690000    1.1421293 -3.3958178e-05    0.6102459  0.016045574            0   0.59420032     1.704628    2.3148739 -0.032315346 
19695000    1.1647445 -3.4326062e-05   0.57012683  0.019313522            0   0.55081331    1.7383812     2.308508 -0.064109408 
19700000    1.1204254 1.5402228e-05   0.59521005  0.011277322            0   0.58393272    1.6722349     2.267445     3.332047 
19705000    1.1346352 -8.6614331e-06   0.57828231  0.047684114            0    0.5305982     1.693443    2.2717253    1.6730471 
19710000    1.0696629 1.8956596e-05   0.65655434  0.023606419            0   0.63294792    1.5964718    2.2530262    3.5633061 
19715000    1.0882806 7.380994e-05   0.60738541  0.016305291            0   0.59108012    1.6242588    2.2316443    7.3333873 
19720000    1.0457392 1.8433138e-05   0.66580189 0.0054852601            0   0.66031663    1.5607658    2.2265677    3.5006662 
19725000    1.0617056 -4.4188211e-05   0.64143324 0.0039275782            0   0.63750566    1.5845956    2.2260289  -0.82826024 
19730000    1.0473103 -1.9661486e-06   0.66905898  0.014713003            0   0.65434598    1.5631106    2.2321696    2.0962694 
19735000    1.0759407 -2.7054888e-05   0.61480209  0.021465988            0    0.5933361    1.6058415    2.2206436   0.35060969 
19740000    1.0467907 -1.3693236e-05    0.6589566  0.011933634            0   0.64702297    1.5623351    2.2212917    1.2748152 
19745000    1.1000913 1.101737e-05   0.57900237 0.0034616601            0   0.57554071    1.6418863    2.2208887    2.9824093 
19750000    1.0688494 -2.8493257e-05    0.6439036  0.011669085            0   0.63223452    1.5952577    2.2391613   0.26970734 
19755000    1.0740315 1.6729551e-05   0.61867399  0.015125922            0   0.60354807     1.602992     2.221666    3.3780125 
19760000    1.0805303 3.3687477e-05   0.60647961  0.019054899            0   0.58742471    1.6126915    2.2191711    4.5476495 
19765000    1.0478026 -6.4361435e-06   0.65453295  0.019337135            0   0.63519581    1.5638454    2.2183783    1.7735121 
19770000     1.076594 -1.0943578e-05   0.59904649 0.0083048246            0   0.59074167    1.6068166    2.2058631     1.449443 
19775000    1.1118467 -3.6986665e-05   0.55769699  0.011596575            0   0.54610041    1.6594311    2.2171281  -0.33939017 
19780000    1.0933439 -3.0925072e-05   0.58732809  0.026222107            0   0.56110598    1.6318158    2.2191439  0.081602964 
19785000    1.0902583 -1.7020067e-05   0.59916503  0.020449964            0   0.57871507    1.6272105    2.2263756    1.0499485 
19790000    1.0500413 -1.7058714e-05   0.65029272  0.012520168            0   0.63777256    1.5671866    2.2174793     1.038381 
19795000    1.0800307 3.1781958e-06   0.59800682 0.0081176636            0   0.58988916    1.6119458    2.2099526    2.4296295 
19800000    1.1049436 1.5685007e-05   0.58331935   0.01489412            0   0.56842523    1.6491283    2.2324476    3.3165953 
19805000    1.0605629 -3.6889964e-06    0.6429372  0.026861539            0   0.61607566    1.5828901    2.2258273    1.9708439 
19810000    1.0136518 1.2002416e-05   0.69130082  0.012211695            0   0.67908913    1.5128752    2.2041761    3.0337831 
19815000    1.0266349 7.4368293e-05   0.66315993  0.018263052            0   0.64489688    1.5322527    2.1954126     7.335749 
19820000    1.0336771 -1.8678203e-05   0.64293336  0.024274931            0   0.61865843    1.5427631    2.1856964   0.89465908 
19825000    1.0523625 -7.2757647e-05   0.60530732   0.01559929            0   0.58970803     1.570651    2.1759583   -2.8530502 
19830000    1.0391311 -2.8030055e-06   0.61210322  0.014348935            0   0.59775429    1.5509032    2.1630064    1.9692626 
19835000    1.0306742 2.484317e-05   0.60400449  0.013215111            0   0.59078938    1.5382812    2.1422857    3.8594456 
19840000     1.071042 -5.2942652e-06   0.55760078  0.018227867            0   0.53937291    1.5985301    2.1561309    1.7901913 
19845000     1.002088 -6.7773359e-05   0.65820186  0.021291501            0   0.63691036    1.4956164    2.1538183   -2.5306763 
19850000    1.0013007 -1.9993682e-05   0.67325077  0.010795245            0   0.66245553    1.4944414    2.1676921   0.78572885 
19855000    1.0042587 3.1605049e-05   0.66539307  0.012103605            0   0.65328946     1.498856    2.1642491    4.3487901 
19860000    1.0139593 4.835167e-05    0.6350223  0.028411017            0   0.60661129    1.5133342    2.1483565     5.490424 
19865000    1.0252337 5.091654e-05   0.63774169  0.041160314            0   0.59658137    1.5301613    2.1679029    5.6872542 
19870000   0.96607113 5.7311428e-06   0.72284945  0.030146508            0   0.69270294    1.4418612    2.1647106    2.5608472 
19875000    1.0124077 3.3206368e-05   0.65021329  0.041302352            0   0.60891094    1.5110186    2.1612319     4.456456 
19880000    1.0346018 3.9129172e-05   0.61498773   0.01978094            0   0.59520679    1.5441432    2.1591309    4.8637393 
19885000     1.036862 -7.3225768e-06   0.61538146  0.015650458            0     0.599731    1.5475165    2.1628979    1.6567614 
19890000    1.0310247 -8.3674609e-06   0.60956338  0.029942366            0   0.57962101    1.5388044    2.1483678    1.5700089 
19895000    1.0209187 -4.2114424e-05   0.63980003  0.032023463            0   0.60777657    1.5237211    2.1635211  -0.74742785 
19900000    1.0395628 2.123557e-05   0.63155085  0.023194093            0   0.60835676    1.5515474    2.1830983    3.6509009 
19905000   0.99948824 -1.5083363e-05   0.69938782  0.039344734            0   0.66004309    1.4917362     2.191124    1.1485619 
19910000    1.0722429 6.6749192e-06   0.59952708  0.010609323            0   0.58891776    1.6003225    2.1998496      2.66122 
19915000    1.0601136 -2.8577818e-05   0.59383707 0.0052796834            0   0.58855739    1.5822195    2.1760565   0.20075779 
19920000    1.0078622 -6.0342651e-05   0.65145088 0.0075608228            0   0.64389006    1.5042343    2.1556852   -2.0151989 
19925000    1.0614191 6.8432602e-05   0.57711943 0.0095200979            0   0.56759933    1.5841679    2.1612874    6.8913488 
19930000    1.0608896 4.3867102e-06   0.57350879  0.018433746            0   0.55507505    1.5833777    2.1568865    2.4600959 
19935000    1.0665823 1.8172956e-06   0.57553692  0.021825376            0   0.55371154    1.5918741     2.167411    2.2930225 
19940000    1.0111345 2.9435223e-05   0.65760906  0.011517916            0   0.64609114    1.5091182    2.1667272    4.2012899 
19945000    1.0290911 1.4894069e-05   0.62088565 0.0065979303            0   0.61428772    1.5359185    2.1568041    3.1862822 
19950000    1.0282017 4.2399484e-05   0.62917909  0.018717234            0   0.61046186     1.534591    2.1637701    5.0944224 
19955000    1.0497358 6.2441017e-06   0.60158911  0.021180076            0   0.58040903    1.5667307    2.1683198    2.5999121 
19960000     1.051212 -3.1705674e-05   0.60921107  0.023446965            0    0.5857641    1.5689339     2.178145   -0.0133512 
19965000    1.0189881 1.9139009e-05   0.65214722  0.036554904            0   0.61559232    1.5208398     2.172987    3.4958753 
19970000     1.073513 2.0500771e-05   0.57031211  0.030260561            0   0.54005155    1.6022182    2.1725303    3.5895436 
19975000    1.0645717 4.1824701e-06   0.61370779  0.016099509            0   0.59760828    1.5888733    2.2025811    2.4916734 
19980000    1.0905396 1.4885693e-05   0.57178249 0.0046322908            0    0.5671502    1.6276304    2.1994129     3.228312 
19985000    1.0934826 -1.6905569e-05   0.57049738 0.00090549768            0   0.56959188    1.6320227    2.2025201    1.0340072 
19990000    1.0032531 6.3346415e-06   0.68164896   0.01557033            0   0.66607863    1.4973553    2.1790043    2.6168547 
19995000    1.0673655 6.2428433e-05    0.5771223   0.01731759            0   0.55980471     1.593043    2.1701653    6.4852185 
20000000    1.0713209 6.7202736e-05   0.60298391 0.0038319769            0   0.59915193    1.5989465    2.2019304    6.8469835 
Loop time of 553.044 on 1 procs for 20000000 steps with 200 atoms

Performance: 31245.279 tau/day, 36163.517 timesteps/s
99.3% CPU use with 1 MPI tasks x no OpenMP threads

MPI task timing breakdown:
Section |  min time  |  avg time  |  max time  |%varavg| %total
---------------------------------------------------------------
Pair    | 18.821     | 18.821     | 18.821     |   0.0 |  3.40
Bond    | 59.4       | 59.4       | 59.4       |   0.0 | 10.74
Neigh   | 85.607     | 85.607     | 85.607     |   0.0 | 15.48
Comm    | 196.36     | 196.36     | 196.36     |   0.0 | 35.50
Output  | 1.0476     | 1.0476     | 1.0476     |   0.0 |  0.19
Modify  | 179.13     | 179.13     | 179.13     |   0.0 | 32.39
Other   |            | 12.68      |            |       |  2.29

Nlocal:        200.000 ave         200 max         200 min
Histogram: 1 0 0 0 0 0 0 0 0 0
Nghost:        0.00000 ave           0 max           0 min
Histogram: 1 0 0 0 0 0 0 0 0 0
Neighs:        42.0000 ave          42 max          42 min
Histogram: 1 0 0 0 0 0 0 0 0 0

Total # of neighbors = 42
Ave neighs/atom = 0.21
Ave special neighs/atom = 5.9400000
Neighbor list builds = 4305
Dangerous builds = 0
write_restart restart.equil
System init for write_restart ...
WARNING: Communication cutoff 1.4200000000000002 is shorter than a bond length based estimate of 1.8. This may lead to errors. (../comm.cpp:667)
#--------------End of Input file ------------------
Total wall time: 0:09:13
