LAMMPS (29 Oct 2020)
###################### polyelectrolyte complexation ######################
clear

#Initialization
#------------------------------------
units				lj
dimension			3
atom_style			full
boundary			p p p

#Atom Definition
#-------------------------------------
read_data			data.complexation
Reading data file ...
  orthogonal box = (-120.00000 -120.00000 -120.00000) to (120.00000 120.00000 120.00000)
  1 by 1 by 1 MPI processor grid
  reading atoms ...
  200 atoms
  scanning bonds ...
  1 = max bonds/atom
  reading bonds ...
  199 bonds
Finding 1-2 1-3 1-4 neighbors ...
  special bond factors lj:    0.0      0.0      0.0     
  special bond factors coul:  0.0      0.0      0.0     
     2 = max # of 1-2 neighbors
     2 = max # of 1-3 neighbors
     4 = max # of 1-4 neighbors
     6 = max # of special neighbors
  special bonds CPU = 0.000 seconds
  read_data CPU = 0.003 seconds

#Force definition
#----------------------------------------------
#Bond definition
bond_style			harmonic
bond_coeff			1 5000 1
#Pair definition
special_bonds	lj 0 1 1
Finding 1-2 1-3 1-4 neighbors ...
  special bond factors lj:    0.0      1.0      1.0     
  special bond factors coul:  0.0      0.0      0.0     
     2 = max # of 1-2 neighbors
     2 = max # of 1-3 neighbors
     4 = max # of 1-4 neighbors
     6 = max # of special neighbors
  special bonds CPU = 0.000 seconds
pair_style		 lj/cut 1.12
pair_modify 		 shift yes
pair_coeff	1 1 1 1 1.12

#Timestep etc
#--------------------------------------------
timestep		1e-05
run_style		verlet
velocity		all	create	1	12

#Fix
#---------------------------------------
group polymers type 1
200 atoms in group polymers
fix 1 all nve
fix 2 all langevin 1	1	10	12
fix 3 polymers recenter INIT INIT INIT units box

#Dump
#------------------------------------------------
compute  1 all gyration
variable  myRg2 equal c_1
variable  i equal step
fix  mythermofile all print 5000 "$i ${myRg2}" file radius_of_gyration.dat screen no

thermo_style		 custom step temp press pe evdwl ecoul ebond ke etotal enthalpy
thermo 	5000
dump	3 all custom 5000 dump.lammpstrj id mol type xu yu zu
run		20000000
Neighbor list info ...
  update every 1 steps, delay 10 steps, check yes
  max neighbors/atom: 2000, page size: 100000
  master list distance cutoff = 1.42
  ghost atom cutoff = 1.42
  binsize = 0.71, bins = 339 339 339
  1 neighbor lists, perpetual/occasional/extra = 1 0 0
  (1) pair lj/cut, perpetual
      attributes: half, newton on
      pair build: half/bin/newton
      stencil: half/bin/3d/newton
      bin: standard
WARNING: Communication cutoff 1.4200000000000002 is shorter than a bond length based estimate of 1.8. This may lead to errors. (../comm.cpp:667)
Per MPI rank memory allocation (min/avg/max) = 165.7 | 165.7 | 165.7 Mbytes
Step Temp Press PotEng E_vdwl E_coul E_bond KinEng TotEng Enthalpy 
       0            1 1.4395255e-05            0            0            0            0       1.4925       1.4925       2.4875 
    5000   0.79400187 -0.00022710043   0.31876387            0            0   0.31876387    1.1850478    1.5038117    -14.19337 
   10000   0.41831729 -0.00053302046    0.8898249            0            0    0.8898249   0.62433855    1.5141635   -35.328211 
   15000   0.69703632 -0.00027320931   0.48545534            0            0   0.48545534    1.0403267     1.525782   -17.358445 
   20000   0.76988673 -0.00017324842   0.37833815            0            0   0.37833815     1.149056    1.5273941   -10.447537 
   25000   0.56553487 -0.00043758354   0.69285893            0            0   0.69285893   0.84406079    1.5369197   -28.708855 
   30000   0.69714215 -0.00032890446   0.51835228            0            0   0.51835228    1.0404847    1.5588369   -21.175039 
   35000   0.79988877 -0.00012703007   0.36633764            0            0   0.36633764     1.193834    1.5601716   -7.2201468 
   40000   0.68131182 -0.00027933602   0.54555573            0            0   0.54555573    1.0168579    1.5624136   -17.745292 
   45000   0.57916805 -0.00042570516   0.68939373            0            0   0.68939373   0.86440831     1.553802   -27.870938 
   50000   0.76706342 -0.00019056928    0.4323555            0            0    0.4323555    1.1448422    1.5771977   -11.594951 
   55000   0.75206695 -0.00015649048   0.45509548            0            0   0.45509548    1.1224599    1.5775554   -9.2390667 
   60000   0.66000373 -0.00031267547   0.58995505            0            0   0.58995505   0.98505557    1.5750106   -20.037118 
   65000   0.75241076 -0.00027576732   0.46960992            0            0   0.46960992    1.1229731     1.592583   -17.468454 
   70000   0.78944752 -0.0001579763   0.41239347            0            0   0.41239347    1.1782504    1.5906439   -9.3286779 
   75000   0.72155849 -0.00020015041   0.52526013            0            0   0.52526013     1.076926    1.6021862    -12.23221 
   80000   0.79196461 -0.00021262367   0.41437906            0            0   0.41437906    1.1820072    1.5963862   -13.100162 
   85000   0.76955372 -0.00023084085   0.44410423            0            0   0.44410423    1.1485589    1.5926632   -14.363057 
   90000   0.77887749 -0.00014850642   0.42820568            0            0   0.42820568    1.1624747    1.5906803   -8.6740831 
   95000   0.81061478 -0.00014048506    0.3821344            0            0    0.3821344    1.2098426     1.591977   -8.1183502 
  100000   0.82256117 -0.00014548305   0.36490041            0            0   0.36490041    1.2276725     1.592573   -8.4632153 
  105000   0.79786095 -0.00016645608   0.40939899            0            0   0.40939899    1.1908075    1.6002065    -9.905238 
  110000   0.81708158 -0.00011499699   0.38539977            0            0   0.38539977    1.2194943     1.604894   -6.3436982 
  115000    0.8394238 -0.00010641983   0.36038298            0            0   0.36038298      1.25284     1.613223   -5.7425154 
  120000   0.82999908 -0.00012843379   0.37385851            0            0   0.37385851    1.2387736    1.6126321   -7.2647116 
  125000   0.84004467 -0.00013230761   0.37453583            0            0   0.37453583    1.2537667    1.6283025   -7.5167998 
  130000    0.8093164 -0.0001078275   0.40508362            0            0   0.40508362    1.2079047    1.6129883   -5.8400484 
  135000   0.84735029 -5.5813745e-05   0.33837594            0            0   0.33837594    1.2646703    1.6030463   -2.2547998 
  140000   0.83643713 -9.4602566e-05   0.36272528            0            0   0.36272528    1.2483824    1.6111077   -4.9278216 
  145000   0.84341951 -9.5161483e-05   0.36326606            0            0   0.36326606    1.2588036    1.6220697    -4.955492 
  150000   0.84331043 -7.0098253e-05   0.38438353            0            0   0.38438353    1.2586408    1.6430243   -3.2021669 
  155000    0.8938685 -2.4287807e-05   0.29369591            0            0   0.29369591    1.3340987    1.6277946 -0.050978574 
  160000   0.86617499 -2.536213e-05   0.32675357            0            0   0.32675357    1.2927662    1.6195197  -0.13351068 
  165000   0.82553576 -0.00011316133   0.39520641            0            0   0.39520641    1.2321121    1.6273185   -6.1943928 
  170000    0.8495389 -7.0391507e-05   0.35802508            0            0   0.35802508    1.2679368    1.6259619   -3.2394991 
  175000   0.85963685 -1.6933922e-05   0.33001403            0            0   0.33001403     1.283008     1.613022   0.44254937 
  180000   0.86509879 -4.5458947e-05   0.33281166            0            0   0.33281166    1.2911599    1.6239716   -1.5181508 
  185000   0.85029991 -7.953024e-05   0.36270653            0            0   0.36270653    1.2690726    1.6317791   -3.8653511 
  190000   0.84998478 -1.8914757e-05   0.38019231            0            0   0.38019231    1.2686023    1.6487946   0.34140657 
  195000   0.86798117 7.4734544e-06   0.36577995            0            0   0.36577995    1.2954619    1.6612418     2.177807 
  200000   0.86422631 -5.5890376e-05   0.38114041            0            0   0.38114041    1.2898578    1.6709982   -2.1921446 
  205000   0.83345535 -4.146082e-05   0.42752814            0            0   0.42752814    1.2439321    1.6714602   -1.1943116 
  210000   0.86640001 -1.4832243e-05   0.38936205            0            0   0.38936205     1.293102    1.6824641   0.65725944 
  215000    0.8884169 -1.5361645e-05   0.36537754            0            0   0.36537754    1.3259622    1.6913398   0.62954289 
  220000   0.86801211 -8.4779505e-05   0.40198737            0            0   0.40198737    1.2955081    1.6974954   -4.1624639 
  225000    0.8983599 -3.7412409e-05   0.36054515            0            0   0.36054515    1.3408022    1.7013473  -0.88459844 
  230000   0.86093807 6.8915855e-06   0.41403401            0            0   0.41403401    1.2849501    1.6989841    2.1753305 
  235000    0.9106202  6.63489e-07    0.3338423            0            0    0.3338423    1.3591007     1.692943    1.7388033 
  240000   0.85609724 -7.5237364e-05   0.40461865            0            0   0.40461865    1.2777251    1.6823438   -3.5180628 
  245000   0.87029608 3.1588517e-07   0.38543906            0            0   0.38543906    1.2989169     1.684356    1.7061899 
  250000   0.89925858 3.8168666e-05   0.34753935            0            0   0.34753935    1.3421434    1.6896828     4.327901 
  255000   0.85131029 -6.5109494e-05   0.42694482 7.9880035e-06            0   0.42693683    1.2705806    1.6975254   -2.8028428 
  260000   0.89527335 -3.7880826e-05   0.35693624 0.00014899492            0   0.35678724    1.3361955    1.6931317    -0.925191 
  265000   0.87959562 2.3146947e-05    0.3919429 0.00046616118            0   0.39147674    1.3127965    1.7047394    3.3046563 
  270000   0.87600484 -5.0994438e-05   0.38300769 0.00072576504            0   0.38228192    1.3074372    1.6904449   -1.8342907 
  275000   0.87778581 2.3019492e-05   0.37852492 0.00022078641            0   0.37830414    1.3100953    1.6886202    3.2797275 
  280000   0.88921515 -4.7529693e-05   0.37529101 4.539133e-05            0   0.37524562    1.3271536    1.7024446   -1.5828078 
  285000   0.89446706 -4.2988451e-05   0.36720173            0            0   0.36720173    1.3349921    1.7021938   -1.2691679 
  290000   0.88360915 2.832761e-05     0.371161            0            0     0.371161    1.3187867    1.6899477    3.6479521 
  295000   0.85479533 -1.3705891e-05   0.43086448            0            0   0.43086448     1.275782    1.7066465   0.75929531 
  300000   0.89428312 -0.0001084061   0.38214406            0            0   0.38214406    1.3347176    1.7168616   -5.7761681 
  305000   0.92440862 2.0681326e-05   0.34811567            0            0   0.34811567    1.3796799    1.7277955    3.1572888 
  310000   0.91138393 1.7712233e-05    0.3651882            0            0    0.3651882    1.3602405    1.7254287    2.9496982 
  315000   0.91638473 -3.6331346e-05   0.34044758            0            0   0.34044758    1.3677042    1.7081518  -0.80307083 
  320000   0.88393433 -8.3073481e-05    0.4027721            0            0    0.4027721     1.319272    1.7220441    -4.019995 
  325000   0.88661685 2.9203239e-05   0.39945873            0            0   0.39945873    1.3232757    1.7227344    3.7412623 
  330000   0.89608908 -2.0678091e-05   0.37782124            0            0   0.37782124     1.337413    1.7152342   0.28596451 
  335000   0.86416406 -3.4371527e-05   0.43039457            0            0   0.43039457    1.2897649    1.7201594  -0.65560054 
  340000   0.91849841 -1.4969782e-05   0.36241673            0            0   0.36241673    1.3708589    1.7332756   0.69856427 
  345000   0.92787625 3.8975897e-05   0.35425607            0            0   0.35425607    1.3848553    1.7391114    4.4331254 
  350000   0.91192713 -4.4502345e-05   0.39213556            0            0   0.39213556    1.3610512    1.7531868   -1.3228153 
  355000   0.89202971 -1.9304808e-05   0.43883372            0            0   0.43883372    1.3313543    1.7701881   0.43583975 
  360000   0.91770739 2.8032517e-05   0.41068826            0            0   0.41068826    1.3696783    1.7803665    3.7179741 
  365000   0.92728307 -7.8935549e-05   0.40678084            0            0   0.40678084      1.38397    1.7907508   -3.6652743 
  370000   0.95621576 3.0292836e-05   0.38105133            0            0   0.38105133     1.427152    1.8082034    3.9020442 
  375000   0.96346116 -1.2453562e-05   0.38160766            0            0   0.38160766    1.4379658    1.8195734   0.95878324 
  380000   0.93331969 -4.3060241e-05   0.41685023            0            0   0.41685023    1.3929796    1.8098299    -1.166494 
  385000   0.94153753 1.7303268e-05   0.39770857            0            0   0.39770857    1.4052448    1.8029533    2.9989552 
  390000   0.93846161 -1.9564706e-05   0.40066164            0            0   0.40066164    1.4006539    1.8013156   0.44900309 
  395000   0.95027221 -3.7626408e-05   0.38381662            0            0   0.38381662    1.4182813    1.8020979  -0.79863941 
  400000   0.94401097 -6.5722329e-06   0.41199467            0            0   0.41199467    1.4089364     1.820931    1.3666583 
  405000   0.95159008 1.3255313e-05   0.40387496            0            0   0.40387496    1.4202482    1.8241232    2.7403304 
  410000   0.97812947 -3.5125963e-05   0.36709887            0            0   0.36709887    1.4598582    1.8269571  -0.60094947 
  415000   0.91116847 -1.4782486e-05   0.44817165            0            0   0.44817165    1.3599189    1.8080906   0.78632516 
  420000   0.92118595 -1.9687046e-05   0.42811821            0            0   0.42811821      1.37487    1.8029882   0.44221965 
  425000   0.90453202 3.2947527e-06   0.45208725            0            0   0.45208725     1.350014    1.8021013    2.0298346 
  430000   0.96745063 -4.6906077e-05   0.36523705            0            0   0.36523705    1.4439201    1.8091571   -1.4329909 
  435000   0.94950609 1.9868712e-05   0.38633083            0            0   0.38633083    1.4171378    1.8034687     3.176794 
  440000   0.91615105 -2.6590615e-05   0.43009392            0            0   0.43009392    1.3673554    1.7974494 -0.040493967 
  445000   0.93845138 6.9512566e-05   0.39178195            0            0   0.39178195    1.4006387    1.7924206    6.5971292 
  450000   0.92560323 -8.5214979e-05   0.43152824            0            0   0.43152824    1.3814628    1.8129911   -4.0770683 
  455000   0.91232457 1.5302435e-05   0.47799376            0            0   0.47799376    1.3616444    1.8396382    2.8973425 
  460000   0.94513898 4.4041019e-06   0.44059164            0            0   0.44059164    1.4106199    1.8512116    2.1556231 
  465000    0.9292394 -1.8322677e-05   0.45802848            0            0   0.45802848    1.3868898    1.8449183   0.57845484 
  470000   0.93186257 -7.9809871e-05   0.46834716            0            0   0.46834716    1.3908049    1.8591521   -3.6573062 
  475000   0.93994878 9.0029575e-05   0.47045612            0            0   0.47045612    1.4028736    1.8733297    8.0961739 
  480000   0.95178354 -0.00010741636   0.44082107            0            0   0.44082107    1.4205369     1.861358    -5.563261 
  485000   0.97089028 5.3412716e-05    0.4201121            0            0    0.4201121    1.4490537    1.8691658    5.5610527 
  490000   0.96971562 -1.4262154e-05   0.41934973            0            0   0.41934973    1.4473006    1.8666503   0.88085018 
  495000   0.96271472 -1.4016236e-05    0.4283654            0            0    0.4283654    1.4368517    1.8652171   0.89641492 
  500000   0.95878272 2.6824247e-05   0.42678993            0            0   0.42678993    1.4309832    1.8577731    3.7118651 
  505000   0.97013213 -5.6979788e-05   0.41287576            0            0   0.41287576    1.4479222     1.860798    -2.077645 
  510000   0.96491824 3.9491284e-06   0.43574564            0            0   0.43574564    1.4401405    1.8758861    2.1488499 
  515000   0.96812659 -6.5967416e-05   0.44400557            0            0   0.44400557    1.4449289    1.8889345   -2.6707333 
  520000   0.97052826 2.9685822e-05    0.4440185            0            0    0.4440185    1.4485134    1.8925319     3.944416 
  525000   0.97394486 -7.3828578e-05   0.45408058            0            0   0.45408058    1.4536127    1.9076933    -3.195338 
  530000    1.0126328 5.6319901e-05   0.38273927            0            0   0.38273927    1.5113545    1.8940938    5.7869253 
  535000   0.95045186 -1.8648663e-05   0.46900995            0            0   0.46900995    1.4185494    1.8875593   0.59856377 
  540000   0.95915077 -3.9780802e-05    0.4403815            0            0    0.4403815    1.4315325     1.871914    -0.877735 
  545000   0.95238584 6.8983423e-06   0.47754383            0            0   0.47754383    1.4214359    1.8989797    2.3757931 
  550000   0.94961923 -2.7574567e-05   0.48734005            0            0   0.48734005    1.4173067    1.9046467 -0.001307335 
  555000    0.9525218 -1.7554671e-05   0.47450974            0            0   0.47450974    1.4216388    1.8961485    0.6827697 
  560000   0.95533943 -1.5882591e-05   0.47674336            0            0   0.47674336    1.4258441    1.9025875   0.80478273 
  565000   0.95540412 -7.5505926e-05   0.48194202            0            0   0.48194202    1.4259407    1.9078827   -3.3110869 
  570000   0.96507496 5.1922474e-05   0.47496663            0            0   0.47496663    1.4403744     1.915341    5.5042224 
  575000   0.96668788 -5.3412661e-05   0.46398306            0            0   0.46398306    1.4427817    1.9067647   -1.7851184 
  580000   0.99681734 3.4633144e-05   0.42461377 6.0150122e-05            0   0.42455362    1.4877499    1.9123637    4.3062066 
  585000   0.96074793 -6.4249088e-05   0.47131857 0.00084590409            0   0.47047267    1.4339163    1.9052349   -2.5356621 
  590000   0.91005036 3.407057e-05   0.52467557 0.0012441175            0   0.52343145    1.3582502    1.8829257    4.2378835 
  595000   0.95751421 -4.4135842e-05   0.44845177 0.00039966696            0    0.4480521      1.42909    1.8775417   -1.1731277 
  600000   0.96450776 2.7463939e-05   0.41084545 5.8335525e-06            0   0.41083962    1.4395278    1.8503733    3.7486807 
  605000   0.95908154 -1.5668162e-05   0.43661253            0            0   0.43661253    1.4314292    1.8680417   0.78505834 
  610000   0.90960558 -4.288223e-05   0.51071527            0            0   0.51071527    1.3575863    1.8683016   -1.0957182 
  615000   0.95332616 2.9058398e-05   0.46420082            0            0   0.46420082    1.4228393    1.8870401    3.8955566 
  620000   0.92557738 -8.4428839e-05   0.50513402            0            0   0.50513402    1.3814242    1.8865583   -3.9491631 
  625000   0.93091946 4.9362154e-05    0.4883779            0            0    0.4883779    1.3893973    1.8777752    5.2896873 
  630000   0.94793258 -2.2100195e-05   0.47162487            0            0   0.47162487    1.4147894    1.8864142   0.35884878 
  635000   0.94812845 1.9567203e-06   0.46384275            0            0   0.46384275    1.4150817    1.8789245     2.014173 
  640000   0.94638701 3.0122589e-05   0.45758523 1.7329672e-05            0    0.4575679    1.4124826    1.8700678    3.9521412 
  645000   0.95140505 6.9668286e-06   0.46158277 0.00059655407            0   0.46098622     1.419972    1.8815548     2.363102 
  650000   0.94168658 -4.5140501e-05   0.47580554 0.00097772447            0   0.47482781    1.4054672    1.8812728   -1.2388387 
  655000   0.95071658 2.7961717e-07   0.46957829 0.00057083644            0   0.46900745    1.4189445    1.8885228    1.9078499 
  660000    0.9747054 -3.480142e-05   0.44539748 1.6128483e-05            0   0.44538136    1.4547478    1.9001453  -0.50532888 
  665000   0.94018506 7.9869745e-06   0.47719951 0.00064721367            0    0.4765523    1.4032262    1.8804257    2.4324854 
  670000    0.9117264 1.502818e-05   0.53388767 0.0042235051            0   0.52966416    1.3607517    1.8946393    2.9333871 
  675000   0.93196896 -4.3261829e-05    0.4944611 0.0044462029            0    0.4900149    1.3909637    1.8854248   -1.1048329 
  680000   0.95706415 -3.4345433e-05   0.44137963  0.002759492            0   0.43862014    1.4284182    1.8697979  -0.50415847 
  685000   0.92045258 7.7453002e-05   0.49969067 0.0046882982            0   0.49500237    1.3737755    1.8734661    7.2270177 
  690000   0.91438786 -5.4648097e-05   0.51461999  0.002409057            0   0.51221094    1.3647239    1.8793439   -1.8979326 
  695000   0.91888795 4.0592335e-05   0.49907035 0.00015403874            0   0.49891631    1.3714403    1.8705106    4.6762528 
  700000   0.93602343 -3.7112361e-05   0.47349776            0            0   0.47349776     1.397015    1.8705127  -0.69469363 
  705000   0.89711388 2.9559197e-05   0.54309258            0            0   0.54309258    1.3389425     1.882035    3.9251668 
  710000   0.89387142 -5.7390526e-05   0.56372323            0            0   0.56372323    1.3341031    1.8978263   -2.0690069 
  715000   0.92475105 7.6036193e-05   0.52482383 0.00058193516            0    0.5242419    1.3801909    1.9050148    7.1606364 
  720000   0.91460615 -6.2963589e-05    0.5408581 0.0038167697            0   0.53704134    1.3650497    1.9059078   -2.4461355 
  725000   0.95227554 2.3950133e-05   0.48542721 0.0023627078            0    0.4830645    1.4212712    1.9066984    3.5621317 
  730000   0.93537857 3.8345225e-05   0.52551584 2.5313907e-06            0   0.52551331    1.3960525    1.9215684    4.5719903 
  735000   0.92824599 -3.6617131e-05   0.52460307            0            0   0.52460307    1.3854071    1.9100102  -0.62096587 
  740000   0.90110454 8.7849097e-07   0.54190044            0            0   0.54190044    1.3448985     1.886799    1.9475203 
  745000   0.95017679 -4.3674951e-05   0.46167241            0            0   0.46167241    1.4181389    1.8798113   -1.1390013 
  750000   0.92866579 5.4978038e-05   0.48906222            0            0   0.48906222    1.3860337    1.8750959    5.6751779 
  755000   0.93191316 -6.8580279e-05   0.48980087            0            0   0.48980087    1.3908804    1.8806813   -2.8595876 
  760000   0.90432398 3.5555795e-05   0.52561356            0            0   0.52561356    1.3497035    1.8753171    4.3329337 
  765000   0.93832028 -4.1819851e-05   0.48787934            0            0   0.48787934     1.400443    1.8883224   -1.0022658 
  770000    0.9631972 -3.6010386e-07   0.47337143            0            0   0.47337143    1.4375718    1.9109432    1.8860529 
  775000    0.8846611 -6.7220555e-05   0.58858653            0            0   0.58858653    1.3203567    1.9089432   -2.7373416 
  780000   0.92837268 1.8887949e-05   0.51011286            0            0   0.51011286    1.3855962    1.8957091    3.2012441 
  785000   0.91123372 -7.4720326e-05   0.52333877            0            0   0.52333877    1.3600163    1.8833551   -3.2813138 
  790000   0.93201858 9.4531963e-05   0.50392884            0            0   0.50392884    1.3910377    1.8949666    8.4290159 
  795000   0.92019717 -6.7676808e-05    0.5309662            0            0    0.5309662    1.3733943    1.9043605   -2.7734605 
  800000    0.9343916 2.6411951e-05   0.50542545            0            0   0.50542545    1.3945795    1.9000049    3.7255989 
  805000   0.96223863  -5.0802e-05   0.46505665            0            0   0.46505665    1.4361412    1.9011978   -1.6102364 
  810000   0.91345048 -3.388393e-05   0.53529392            0            0   0.53529392    1.3633248    1.8986188  -0.44343845 
  815000   0.93114976 -3.5746635e-05   0.51602605            0            0   0.51602605     1.389741    1.9057671  -0.56504032 
  820000   0.93582664 2.1247174e-05   0.50863762            0            0   0.50863762    1.3967213    1.9053589    3.3739635 
  825000   0.93745372 -3.0309124e-05   0.50001338 4.1193511e-05            0   0.49997219    1.3991497     1.899163   -0.1958036 
  830000   0.96529773 3.6663209e-05   0.46380242 0.00052882532            0   0.46327359    1.4407069    1.9045093    4.4386703 
  835000   0.95666516 -9.9717758e-05   0.48682604 0.0011041946            0   0.48572184    1.4278228    1.9146488   -4.9778427 
  840000   0.97813105 2.8988522e-05   0.44353836 0.00092891917            0   0.44260944    1.4598606    1.9033989    3.9070856 
  845000   0.95655121 -1.1603707e-05   0.47237424 0.00023908842            0   0.47213515    1.4276527    1.9000269    1.0979787 
  850000   0.94281242 -4.4542621e-05   0.49270947 0.00010155191            0   0.49260792    1.4071475     1.899857   -1.1789289 
  855000   0.95454587 -4.9997386e-05   0.47487689 0.00094404633            0   0.47393284    1.4246597    1.8995366   -1.5562827 
  860000    0.9566416 -4.2290166e-06   0.47056466 0.0011658841            0   0.46939877    1.4277876    1.8983523    1.6060426 
  865000   0.93973476 -2.5701559e-05   0.50659232 0.00057026968            0   0.50602205    1.4025541    1.9091464   0.13265467 
  870000   0.93901769 -1.8224666e-05   0.51733058 0.00014943181            0   0.51718115    1.4014839    1.9188145   0.65912558 
  875000   0.97009762 1.6062442e-05   0.47826353            0            0   0.47826353    1.4478707    1.9261342    3.0363702 
  880000   0.97961327 -5.2879463e-05   0.45837463            0            0   0.45837463    1.4620728    1.9204474   -1.7345811 
  885000   0.96146646 2.0785981e-05   0.47936828            0            0   0.47936828    1.4349887     1.914357     3.351084 
  890000   0.92757959 -3.4418287e-05   0.52479968 0.00069789509            0   0.52410179    1.3844125    1.9092122   -0.4697798 
  895000   0.93353755 1.2655792e-06   0.49349753 0.0027825253            0     0.490715    1.3933048    1.8868023    1.9742792 
  900000   0.93195638 -2.7662686e-05   0.50433183 0.0011804899            0   0.50315134    1.3909449    1.8952767 -0.016768124 
  905000    0.9040594 -4.2851612e-05   0.53484067 0.00049629167            0   0.53434438    1.3493087    1.8841493   -1.0777541 
  910000   0.95149238 4.9160367e-05   0.48178177 2.156757e-05            0    0.4817602    1.4201024    1.9018841    5.2998487 
  915000   0.90445984 -9.2972718e-06   0.54226491            0            0   0.54226491    1.3499063    1.8921712    1.2495438 
  920000   0.93097838 -1.1946315e-05   0.50525183            0            0   0.50525183    1.3894852    1.8947371    1.0690078 
  925000    1.0132663 -3.1428848e-05   0.37829816 2.0062084e-05            0    0.3782781    1.5122999     1.890598  -0.28176393 
  930000   0.95296973  3.34458e-05   0.48085522 0.00030046336            0   0.48055476    1.4223073    1.9031625    4.2149362 
  935000   0.93489129 -5.2348381e-05   0.52474736 0.00048758677            0   0.52425977    1.3953252    1.9200726   -1.6982475 
  940000   0.97229561 3.8214673e-05   0.46509015 5.2587146e-05            0   0.46503756    1.4511512    1.9162413    4.5576396 
  945000    1.0068108 -7.8063063e-06   0.41340975 9.2651958e-06            0   0.41340048    1.5026651    1.9160748    1.3765029 
  950000   0.99335583 -4.5985243e-05   0.43247931            0            0   0.43247931    1.4825836    1.9150629   -1.2634371 
  955000   0.94832038 2.5098384e-05   0.49121505            0            0   0.49121505    1.4153682    1.9065832    3.6413835 
  960000   0.94230576 -2.2298153e-05   0.50903536            0            0   0.50903536    1.4063913    1.9154267   0.37417835 
  965000   0.94435113 8.4606564e-06   0.51000352            0            0   0.51000352    1.4094441    1.9194476    2.5042482 
  970000   0.95918146 -1.7696306e-05   0.48337278            0            0   0.48337278    1.4315783    1.9149511   0.69178244 
  975000   0.90008094 -2.1694505e-05   0.58897885            0            0   0.58897885    1.3433708    1.9323497    0.4328255 
  980000   0.93880355 2.8838447e-05   0.51562476            0            0   0.51562476    1.4011643    1.9167891    3.9101025 
  985000    0.9809404 6.5062863e-05   0.46178333            0            0   0.46178333    1.4640535    1.9258369     6.422982 
  990000   0.93721333 -6.0955925e-05   0.52428672 0.00047350613            0   0.52381321    1.3987909    1.9230776   -2.2901959 
  995000   0.96695564 9.1085657e-05   0.49476206 0.0060572533            0   0.48870481    1.4431813    1.9379434     8.233784 
 1000000   0.92023264 -9.0307033e-05   0.55107487 0.0052897983            0   0.54578507    1.3734472    1.9245221   -4.3175001 
 1005000    0.9455512 3.0323073e-05   0.51874209 0.00015943806            0   0.51858266    1.4112352    1.9299773    4.0259081 
 1010000    0.9261554 -7.3473121e-05   0.55494298            0            0   0.55494298    1.3822869    1.9372299   -3.1412322 
 1015000   0.93286149 5.4594682e-05   0.54291152 0.00034260186            0   0.54256891    1.3922958    1.9352073    5.7087917 
 1020000   0.93202491 -2.2658536e-05   0.54213491 0.0018938569            0   0.54024106    1.3910472    1.9331821   0.36702409 
 1025000   0.93861268 1.4642698e-05   0.53193214 0.0042817641            0   0.52765038    1.4008794    1.9328116    2.9449149 
 1030000   0.93369065 -4.8145188e-06   0.54465932 0.0028678926            0   0.54179143    1.3935333    1.9381926    1.6054131 
 1035000   0.96744862 -4.4458455e-05   0.48851578  0.001672097            0   0.48684368    1.4439171    1.9324328   -1.1405356 
 1040000    0.9291701 -7.7364671e-06   0.51990401 0.0014594038            0   0.51844461    1.3867864    1.9066904    1.3719458 
 1045000   0.87438134 2.0640827e-05   0.59493233 0.0025974085            0   0.59233492    1.3050141    1.8999465    3.3266405 
 1050000   0.88162045 -2.520146e-05   0.58094253 0.0037286615            0   0.57721387    1.3158185    1.8967611   0.15483614 
 1055000   0.91911149 -1.4942252e-06   0.51662699 0.0012778653            0   0.51534913    1.3717739    1.8884009      1.78512 
 1060000    0.8786444 -6.9633643e-05   0.57963966 4.0367672e-05            0    0.5795993    1.3113768    1.8910164    -2.922061 
 1065000   0.90985246 2.8925999e-05   0.51687946            0            0   0.51687946    1.3579548    1.8748343    3.8741993 
 1070000   0.90655394 -6.0505484e-05   0.54477357            0            0   0.54477357    1.3530318    1.8978053   -2.2843337 
 1075000   0.90096687 5.4774519e-05   0.55942621 0.00038592161            0   0.55904029    1.3446931    1.9041193     5.690134 
 1080000   0.93342125 -0.00010255198   0.53261289  0.001734876            0   0.53087802    1.3931312    1.9257441   -5.1626487 
 1085000   0.87999644 4.968324e-05   0.57557109 0.0019610748            0   0.57361002    1.3133947    1.8889658    5.3230713 
 1090000   0.85968579 -2.89168e-05   0.60547171 0.0022150375            0   0.60325667     1.283081    1.8885528  -0.11017644 
 1095000   0.94568835 -8.1318478e-06   0.49288281 0.0033034198            0   0.48957939    1.4114399    1.9043227    1.3422494 
 1100000   0.90344571 -4.1245377e-05   0.56352953 0.0044368623            0   0.55909266    1.3483927    1.9119222  -0.93895821 
 1105000   0.97975784 4.0597016e-05   0.48026784 0.0011975824            0   0.47907026    1.4622886    1.9425564    4.7486221 
 1110000   0.98064893 7.3112394e-06   0.48686876 3.0662066e-05            0    0.4868381    1.4636185    1.9504873    2.4558401 
 1115000   0.92408851 -9.8396581e-06    0.5584693            0            0    0.5584693    1.3792021    1.9376714    1.2575542 
 1120000    0.9386693 -1.9958861e-06    0.5212599 0.00070358117            0   0.52055632    1.4009639    1.9222238    1.7842682 
 1125000    0.9365311 -4.5156873e-05   0.53169127 0.00095262844            0   0.53073864    1.3977727    1.9294639   -1.1917791 
 1130000   0.95721866 -4.6812639e-06    0.5117036  0.002080092            0   0.50962351    1.4286488    1.9403524    1.6167835 
 1135000   0.96564403 -3.1624827e-05   0.49740968 0.0025051808            0    0.4949045    1.4412237    1.9386334  -0.24727461 
 1140000   0.94710456 -3.5103811e-05   0.52110192 0.0028120639            0   0.51828986    1.4135536    1.9346555  -0.49171993 
 1145000   0.95944596 -4.4596259e-05   0.50824912 0.00099626594            0   0.50725285    1.4319731    1.9402222   -1.1422712 
 1150000   0.97783015 4.0753632e-05   0.48977531 0.0018979349            0   0.48787738    1.4594115    1.9491868    4.7660779 
 1155000   0.97280707 2.9660945e-05   0.50114403 0.0033410921            0   0.49780294    1.4519146    1.9530586    4.0032231 
 1160000   0.98003106 1.7863273e-05   0.49585776 0.0018727408            0   0.49398502    1.4626964    1.9585541    3.1932636 
 1165000    1.0175463 1.2246606e-06   0.44946549 2.2161904e-05            0   0.44944333    1.5186879    1.9681534    2.0528019 
 1170000   0.96741319 -1.3429778e-05   0.50622096 0.0003875281            0   0.50583343    1.4438642    1.9500851    1.0218189 
 1175000   0.96723657 -3.4552772e-05   0.51039666 0.00086140978            0   0.50953525    1.4436006    1.9539972  -0.43429036 
 1180000   0.92236463 -2.5324091e-05   0.55946372 0.00037994378            0   0.55908377    1.3766292    1.9360929   0.18569176 
 1185000   0.96847762 -1.8963498e-05   0.48694295            0            0   0.48694295    1.4454528    1.9323958   0.62163884 
 1190000   0.97287194 -3.4062919e-05   0.49602545 1.4501508e-06            0     0.496024    1.4520114    1.9480368  -0.40639216 
 1195000   0.96828275 6.5707307e-06   0.50572225 1.5482868e-05            0   0.50570677     1.445162    1.9508843    2.4050532 
 1200000   0.95772296 -5.0331597e-05   0.50411081 0.0011518689            0   0.50295894    1.4294015    1.9335123   -1.5454077 
 1205000   0.94411665 -8.4566858e-06   0.51614821  0.003237473            0   0.51291073    1.4090941    1.9252423    1.3407162 
 1210000   0.92966852 -5.9531056e-06   0.53265398 0.0031775568            0   0.52947642    1.3875303    1.9201843    1.5087056 
 1215000   0.90501402 -2.2186148e-06   0.55578694 0.0018230226            0   0.55396392    1.3507334    1.9065204    1.7531697 
 1220000   0.92356901 1.6776712e-05   0.53914248 0.0012109973            0   0.53793148    1.3784267    1.9175692    3.0771756 
 1225000   0.92022546 7.8050273e-06   0.55531615 4.8254376e-05            0    0.5552679    1.3734365    1.9287526    2.4682361 
 1230000   0.91576851 -4.0594505e-05   0.57254907 0.00013112104            0   0.57241795    1.3667845    1.9393336   -0.8665586 
 1235000   0.96802926 3.603883e-05   0.49960583 0.00061651263            0   0.49898932    1.4447837    1.9443895    4.4353934 
 1240000   0.94336876 -5.3700711e-05   0.54319386 0.00027657346            0   0.54291728    1.4079779    1.9511717   -1.7606214 
 1245000   0.94137843 -1.2830617e-06   0.55305211 4.1829857e-05            0   0.55301028    1.4050073    1.9580594    1.8693742 
 1250000   0.95301916 2.083364e-05   0.53526225 6.5443368e-05            0   0.53519681    1.4223811    1.9576433    3.3976645 
 1255000    0.9437319 4.6512861e-06   0.57851084 0.00097544422            0   0.57753539    1.4085199    1.9870307    2.3085276 
 1260000   0.98346291 1.6271148e-06   0.52850801 0.0036501455            0   0.52485787    1.4678184    1.9963264    2.1087926 
 1265000   0.96621423 8.0439804e-06   0.54615299 0.0063115428            0   0.53984145    1.4420747    1.9882277    2.5442276 
 1270000   0.99360437 -3.3476532e-05   0.48464418 0.0036365421            0   0.48100764    1.4829545    1.9675987   -0.3462992 
 1275000   0.97408015 -4.0670869e-05   0.50520027 0.0051370395            0   0.50006323    1.4538146    1.9590149   -0.8521556 
 1280000   0.94313175 -2.7379083e-05   0.55020992 0.0024012925            0   0.54780863    1.4076241    1.9578341  0.065391805 
 1285000   0.95982854 -1.6116311e-05   0.51587605 0.00023984524            0   0.51563621    1.4325441    1.9484201   0.83446076 
 1290000   0.97035527 6.6918991e-07   0.51047181 0.00038652045            0   0.51008529    1.4482552     1.958727    2.0049815 
 1295000   0.95226076 3.1005182e-06   0.50945501 0.00078471914            0   0.50867029    1.4212492    1.9307042     2.145012 
 1300000    0.9550281 2.5559008e-06   0.51420422 0.00060886934            0   0.51359535    1.4253794    1.9395837    2.1162475 
 1305000   0.93111642 -8.4088423e-06   0.53459407 0.00014126218            0   0.53445281    1.3896913    1.9242853    1.3430662 
 1310000   0.93339923 4.6455103e-05   0.52175803            0            0   0.52175803    1.3930983    1.9148564    5.1258331 
 1315000   0.86774031 -4.2689235e-05   0.62065857            0            0   0.62065857    1.2951024     1.915761   -1.0349189 
 1320000   0.91954753 -1.7512499e-05    0.5462697            0            0    0.5462697    1.3724247    1.9186944   0.70823046 
 1325000   0.89661798 -2.4180378e-05   0.56497884 3.6357397e-05            0   0.56494249    1.3382023    1.9031812   0.23183345 
 1330000   0.88156482 -3.5048772e-05   0.58270099 6.2648513e-05            0   0.58263834    1.3157355    1.8984365  -0.52413462 
 1335000   0.95707842 1.9126334e-05   0.47891637 9.2594688e-05            0   0.47882377    1.4284395    1.9073559    3.2293681 
 1340000   0.89010432 -5.3047913e-05   0.55921471 0.0013487938            0   0.55786591    1.3284807    1.8876954   -1.7789764 
 1345000   0.89896528 -5.8433303e-06   0.52553916 0.0019986528            0    0.5235405    1.3417057    1.8672448    1.4633539 
 1350000   0.95022138 -2.5830691e-05   0.45122228 0.0014597174            0   0.44976256    1.4182054    1.8694277  0.084010294 
 1355000   0.93045326 1.0607149e-05   0.48125917 0.0038263998            0   0.47743277    1.3887015    1.8699607    2.6031268 
 1360000   0.91452959 2.6174755e-05   0.47991809  0.010327586            0    0.4695905    1.3649354    1.8448535    3.6540525 
 1365000   0.94038383 2.8190688e-05   0.45772203 0.0013089442            0   0.45641308    1.4035229    1.8612449    3.8097853 
 1370000   0.90101157 -8.4532724e-05   0.51014702 0.0015028199            0    0.5086442    1.3447598    1.8549068   -3.9879951 
 1375000   0.91703219 5.8282173e-06   0.51028521 0.0022294523            0   0.50805576    1.3686705    1.8789558    2.2818021 
 1380000   0.89862094 -6.8470411e-05   0.54933157 0.0034948364            0   0.54583674    1.3411918    1.8905233   -2.8421515 
 1385000   0.90537487 -1.3655935e-05   0.54811423 0.0040855969            0   0.54402864     1.351272    1.8993862   0.95548803 
 1390000   0.90946929 4.1555368e-06    0.5230954 0.0020484876            0   0.52104691    1.3573829    1.8804783     2.167709 
 1395000   0.93428746 1.1558565e-05   0.48886607 0.0014096752            0   0.48745639     1.394424    1.8832901    2.6822181 
 1400000   0.88891062 -3.4828047e-05    0.5511138 0.0018738281            0   0.54923997    1.3266991    1.8778129  -0.52950173 
 1405000   0.91253297 4.2940503e-06   0.51267348 0.0029813344            0   0.50969215    1.3619555    1.8746289    2.1714337 
 1410000   0.91161296 -6.9960908e-06   0.52356123 0.0064732625            0   0.51708797    1.3605823    1.8841436    1.4005738 
 1415000   0.92622596 -1.6539188e-05   0.51148798 0.00084932409            0   0.51063865    1.3823922    1.8938802   0.75069155 
 1420000   0.92170818 1.2305415e-05   0.50659685 7.1095359e-05            0   0.50652575    1.3756495    1.8822463    2.7327966 
 1425000   0.94338634 1.9555441e-06   0.47453899 1.7308797e-05            0   0.47452168    1.4080041    1.8825431    2.0177103 
 1430000   0.89874663 -4.8940266e-05   0.55372066 0.00015285669            0    0.5535678    1.3413793       1.8951   -1.4876512 
 1435000   0.94068882 2.4471502e-05   0.48519292 0.00034456038            0   0.48484836    1.4039781     1.889171    3.5806412 
 1440000    0.9403181 -3.7954902e-05   0.48142487 0.0020384743            0    0.4793864    1.4034248    1.8848496   -0.7385932 
 1445000   0.94285276 5.8070685e-06   0.49362057 0.00070955035            0   0.49291102    1.4072077    1.9008283    2.3022129 
 1450000   0.98270447 3.2266701e-05    0.4311294 0.00012058233            0   0.43100882    1.4666864    1.8978158    4.1280902 
 1455000   0.93568126 8.1577092e-06   0.49356709 0.00022115532            0   0.49334593    1.3965043    1.8900714    2.4539322 
 1460000   0.95415949 1.9942132e-05   0.46158385 0.00094750602            0   0.46063634     1.424083    1.8856669    3.2640671 
 1465000   0.93101532 -1.0915168e-06   0.49287883 0.0010316287            0    0.4918472    1.3895404    1.8824192    1.8069736 
 1470000   0.94248034 -1.4310378e-05   0.49028339 0.0029240922            0    0.4873593    1.4066519    1.8969353     0.907802 
 1475000   0.93121382 -6.9383272e-06   0.50759646 0.0052916526            0   0.50230481    1.3898366    1.8974331    1.4178559 
 1480000   0.93760868 -6.8475341e-05    0.4993352 0.0018587434            0   0.49747646     1.399381    1.8987162   -2.8342994 
 1485000   0.92136099 -2.5526028e-05   0.52851107 0.00040266881            0    0.5281084    1.3751313    1.9036423   0.13928332 
 1490000   0.95545083 1.9757039e-05   0.49236207 0.00056990482            0   0.49179216    1.4260104    1.9183724     3.283979 
 1495000    0.9276076 -7.9806794e-05   0.53587667 0.00033368063            0   0.53554299    1.3844543     1.920331   -3.5959146 
 1500000   0.94142645 -0.0001048992   0.51155752 1.2583798e-05            0   0.51154493     1.405079    1.9166365   -5.3339962 
 1505000   0.93517024 8.2802353e-05   0.54799161            0            0   0.54799161    1.3957416    1.9437332    7.6670318 
 1510000   0.96490898 -2.0737068e-05    0.4999651 9.2847822e-06            0   0.49995582    1.4401267    1.9400918    0.5067456 
 1515000   0.97023033 -5.666963e-06   0.49587221 0.00046250268            0   0.49540971    1.4480688     1.943941    1.5522405 
 1520000   0.97524236 4.6413888e-05   0.47306883 0.0016061749            0   0.47146266    1.4555492    1.9286181     5.136746 
 1525000   0.92606542 -8.8529559e-05   0.53203229 0.0040724795            0   0.52795981    1.3821526    1.9141849   -4.2049782 
 1530000   0.92584077 4.0148976e-05   0.55176223 0.0057666519            0   0.54599558    1.3818173    1.9335796    4.7086768 
 1535000   0.94535091 -9.0801346e-05   0.51576278 0.0059121373            0   0.50985064    1.4109362     1.926699     -4.34949 
 1540000   0.94685177 4.9535474e-05   0.52504142 0.0039450969            0   0.52109632    1.4131763    1.9382177    5.3621096 
 1545000   0.96233918 -3.2926976e-06   0.50565513 0.0020838571            0   0.50357128    1.4362912    1.9419464    1.7143551 
 1550000     0.991391 3.675554e-05    0.4666046 0.00067025881            0   0.46593434    1.4796511    1.9462557    4.4867986 
 1555000   0.90952056 -2.2745515e-05   0.57822371 5.5153812e-05            0   0.57816856    1.3574594    1.9356832   0.36351317 
 1560000   0.98483854 -2.1884269e-05   0.47631853 0.0015984639            0   0.47472006    1.4698715      1.94619   0.43354934 
 1565000   0.96837597 -5.2487743e-05   0.48478278 0.0035299247            0   0.48125285    1.4453011    1.9300839   -1.6978689 
 1570000   0.96938549 1.3626753e-05   0.47743181 0.0013490738            0   0.47608274    1.4468078    1.9242397    2.8661208 
 1575000   0.92129704 -4.6697726e-06   0.54085079 3.3674567e-06            0   0.54084743    1.3750358    1.9158866    1.5931119 
 1580000   0.91674874 2.6839939e-06   0.52806534            0            0   0.52806534    1.3682475    1.8963128    2.0818305 
 1585000   0.92835863 -3.5978917e-05   0.51859368 0.0004025408            0   0.51819114    1.3855753    1.9041689   -0.5826938 
 1590000   0.92087109 3.1927109e-05   0.52137283 0.0026571778            0   0.51871565    1.3744001    1.8957729    4.1025747 
 1595000   0.89811202 7.0371984e-06   0.54917285 0.0034762536            0   0.54569659    1.3404322     1.889605    2.3760162 
 1600000   0.93132384 2.5822513e-05   0.49755968  0.001640101            0   0.49591958    1.3900008    1.8875605    3.6724126 
 1605000   0.95601888 3.0908354e-05   0.46320455 0.0012151394            0   0.46198941    1.4268582    1.8900627    4.0264482 
 1610000   0.91967142 -8.8038656e-06   0.53204083 0.0025056447            0   0.52953518    1.3726096    1.9046504    1.2961272 
 1615000   0.96565823 -3.643945e-05   0.47567744 0.0021356408            0    0.4735418    1.4412449    1.9169223  -0.60177244 
 1620000    0.9791784 -2.873066e-05   0.45221992 0.0003782873            0   0.45184164    1.4614238    1.9136437 -0.072219533 
 1625000   0.93317957 -1.1041902e-05    0.5184723 0.00072174421            0   0.51775055    1.3927705    1.9112428    1.1480265 
 1630000    1.0004464 -1.7462619e-06   0.40351777 0.0012329624            0   0.40228481    1.4931662     1.896684    1.7759824 
 1635000   0.94807791 2.6911896e-05   0.48401309 0.0032718833            0    0.4807412    1.4150063    1.8990194    3.7591696 
 1640000   0.94590548 -9.2687596e-05   0.47042296 0.0017250778            0   0.46869788    1.4117639    1.8821869   -4.5243797 
 1645000   0.94341755  7.79878e-07   0.48639133 0.0006769966            0   0.48571433    1.4080507     1.894442    1.9483472 
 1650000   0.96549789 -8.7247076e-06   0.46341343 0.0033798872            0   0.46003354    1.4410056     1.904419    1.3013672 
 1655000   0.97257804 1.9667542e-05   0.47191028 0.0034344479            0   0.46847583    1.4515727     1.923483    3.2829035 
 1660000   0.93189423 -0.00010847378   0.52468461 0.0011140047            0    0.5235706    1.3908521    1.9155367   -5.5821711 
 1665000   0.93962056 -1.9636851e-05   0.50183747 0.0045943434            0   0.49724313    1.4023837    1.9042212   0.54692198 
 1670000   0.96091499 5.1914963e-05   0.45186188 0.0069589085            0   0.44490297    1.4341656    1.8860275    5.4743898 
 1675000   0.92348936 3.3187287e-05   0.49703721 0.0064667142            0   0.49057049    1.3783079    1.8753451    4.1692503 
 1680000   0.89985099 1.7365971e-05   0.53482893 0.0050997126            0   0.52972922    1.3430276    1.8778565    3.0781925 
 1685000   0.93800213 -2.2245352e-05    0.4693225 0.0065051562            0   0.46281735    1.3999682    1.8692907   0.33169197 
 1690000   0.91512439 1.7586229e-05   0.49805651 0.0068135822            0   0.49124293    1.3658232    1.8638797    3.0794398 
 1695000   0.91314657 -5.7205806e-06   0.50029154 0.0057610536            0   0.49453049    1.3628713    1.8631628    1.4677563 
 1700000     0.916614 -4.4477932e-05   0.50766994 0.0013784604            0   0.50629148    1.3680464    1.8757163   -1.1985983 
 1705000   0.92477221 -6.7858714e-05   0.49957111 0.0010759426            0   0.49849517    1.3802225    1.8797936   -2.8106006 
 1710000   0.92223701 2.5943393e-05    0.4968793 0.0041252541            0   0.49275405    1.3764387     1.873318    3.6665254 
 1715000    0.9506961 3.087823e-05   0.44717682 0.0081099079            0   0.43906691    1.4189139    1.8660907     4.000394 
 1720000   0.91833905 -1.2553511e-05    0.5174217 0.0075012317            0   0.50992047     1.370621    1.8880427    1.0203441 
 1725000   0.87918123 -5.2246838e-05   0.57777765  0.008327455            0   0.56945019     1.312178    1.8899556   -1.7213458 
 1730000    0.9122963 6.8919938e-05   0.51508737 0.0040568641            0   0.51103051    1.3616022    1.8766896    6.6404357 
 1735000   0.90912492 2.1062378e-06   0.52457744 0.0031194476            0   0.52145799    1.3568689    1.8814464    2.0270295 
 1740000   0.93336596 3.5674343e-05   0.47805216 0.0077372674            0   0.47031489    1.3930487    1.8711009    4.3369115 
 1745000    0.9307078 -2.6978587e-06   0.47170998 0.0093857939            0   0.46232419    1.3890814    1.8607914    1.6743154 
 1750000   0.94924496 2.9928517e-05   0.45975464 0.0043079582            0   0.45544668    1.4167481    1.8765027    3.9451618 
 1755000   0.92883151 -2.4007559e-05   0.48303667 0.00046208779            0   0.48257458     1.386281    1.8693177   0.20991521 
 1760000   0.90594523 -2.6892397e-05   0.49536513 0.00079347253            0   0.49457165    1.3521233    1.8474884 -0.011314084 
 1765000   0.92621508 1.422074e-05   0.47768388  0.001394401            0   0.47628948     1.382376    1.8600599    2.8429974 
 1770000   0.96580759 -1.8734548e-05   0.42839129 0.0016051834            0    0.4267861    1.4414678    1.8698591   0.57492716 
 1775000   0.91082277 -1.3286625e-05   0.52177955 0.0085623472            0    0.5132172     1.359403    1.8811825   0.96281104 
 1780000   0.96865421 3.0833126e-05   0.43639998  0.015520376            0    0.4208796    1.4457164    1.8821164    4.0133021 
 1785000   0.90340391 -2.3939337e-05   0.53734449  0.007150654            0   0.53019384    1.3483303    1.8856748   0.23098783 
 1790000    0.9431366 -1.8644414e-05   0.45795122 0.0016210921            0   0.45633013    1.4076314    1.8655826   0.57688074 
 1795000   0.92500274 -5.0283275e-06   0.48070375 0.0014932244            0   0.47921053    1.3805666    1.8612703    1.5137123 
 1800000   0.91861874 -4.8828652e-05   0.48534353 0.0013902231            0    0.4839533    1.3710385     1.856382   -1.5186544 
 1805000   0.91784293 -1.9405268e-05   0.47950134 0.0046030618            0   0.47489827    1.3698806    1.8493819   0.50808977 
 1810000   0.92113915 3.2725501e-05    0.4481718 0.0037521468            0   0.44441966    1.3748002     1.822972    4.0849586 
 1815000   0.91151106 -2.7667577e-05   0.46260036 0.0016715869            0   0.46092878    1.3604303    1.8230306 -0.089352279 
 1820000   0.89576472 -1.867055e-05   0.49096047  0.002754475            0   0.48820599    1.3369288    1.8278893   0.53738089 
 1825000   0.96795687 -2.0414366e-06   0.38493162  0.010782497            0   0.37414912    1.4446756    1.8296072    1.6885031 
 1830000   0.92876901 2.5365905e-06   0.44636615 0.0093337027            0   0.43703244    1.3861877    1.8325539     2.007883 
 1835000   0.91748778 4.1434034e-05   0.48316982 0.0019621784            0   0.48120765    1.3693505    1.8525203    4.7164408 
 1840000   0.93233029 -2.3715281e-05   0.46160464 0.0017964364            0    0.4598082     1.391503    1.8531076    0.2139074 
 1845000   0.93774271 3.4117144e-05   0.45127431 0.0027946221            0   0.44847968     1.399581    1.8508553    4.2090323 
 1850000   0.91347744 -6.8279541e-05   0.48182387 0.0021092758            0    0.4797146    1.3633651    1.8451889   -2.8742929 
 1855000    0.9032123 5.1146804e-07   0.48230041 0.0063207098            0    0.4759797    1.3480444    1.8303448    1.8656974 
 1860000   0.90145765 -1.3344406e-06   0.49042682  0.012378898            0   0.47804792    1.3454255    1.8358524    1.7436158 
 1865000   0.92934146 -2.7917587e-07   0.45522278  0.013518455            0   0.44170433    1.3870421    1.8422649    1.8229683 
 1870000   0.94199473 -3.727298e-06   0.43777272 0.0098113794            0   0.42796134    1.4059271    1.8436999     1.586069 
 1875000   0.94149863 1.3648711e-05   0.44628216 0.0036717092            0   0.44261045    1.4051867    1.8514689    2.7948678 
 1880000   0.96315619 -3.7867578e-05   0.42287906 0.0039720292            0   0.41890703    1.4375106    1.8603897  -0.75701729 
 1885000   0.88346692 -1.5495475e-06   0.55469735 0.0011530516            0    0.5535443    1.3185744    1.8732717     1.766167 
 1890000    0.9806768 1.4830385e-05   0.39232603 0.0029834478            0   0.38934258    1.4636601    1.8559862    2.8810624 
 1895000   0.92834346 -3.011783e-05   0.46444316 0.0062208778            0   0.45822228    1.3855526    1.8499958  -0.23174863 
 1900000   0.93174038 1.8404536e-05   0.47225792  0.002725403            0   0.46953252    1.3906225    1.8628804     3.135002 
 1905000    1.0074423 4.3547335e-06   0.37553282 0.0017420641            0   0.37379076    1.5036076    1.8791404    2.1801396 
 1910000   0.91917855 1.848457e-05   0.51791147 0.0013192505            0   0.51659222     1.371874    1.8897855    3.1674389 
 1915000   0.93700247 -5.6892177e-05   0.46869246 0.0023559186            0   0.46633655    1.3984762    1.8671686   -2.0652186 
 1920000   0.93797259 -1.3861195e-05   0.45245602  0.004084537            0   0.44837149    1.3999241    1.8523801   0.89429434 
 1925000   0.89930268 3.9997205e-06   0.50734229 0.0062416082            0   0.50110069    1.3422093    1.8495515    2.1260122 
 1930000   0.91656991 -5.0058143e-05   0.46944242 0.0098687424            0   0.45957368    1.3679806     1.837423   -1.6225958 
 1935000   0.86289864 -1.6735612e-05   0.53386314  0.006530345            0   0.52733279    1.2878762    1.8217394   0.66497386 
 1940000   0.93824184 -3.5139111e-05   0.39926284 0.0010502319            0   0.39821261    1.4003259    1.7995888  -0.62922654 
 1945000    0.8885742 -3.5594867e-05   0.45882275 0.0034469473            0   0.45537581     1.326197    1.7850197  -0.67529743 
 1950000    0.8933681 -1.1982541e-05   0.46917373  0.016613946            0   0.45255979    1.3333519    1.8025256   0.97429242 
 1955000   0.92480754 -8.0515163e-07   0.43141447 0.0077674277            0   0.42364704    1.3802753    1.8116897    1.7560376 
 1960000   0.93436574 4.8824931e-05   0.42277135 5.8968433e-05            0   0.42271238    1.3945409    1.8173122    5.1920914 
 1965000   0.97619004 5.7761117e-06   0.34569664 0.0015128408            0    0.3441838    1.4569636    1.8026603    2.2019051 
 1970000   0.89290258 -2.2830086e-05   0.48240398  0.007954092            0   0.47444989    1.3326571    1.8150611   0.23704556 
 1975000   0.91957945 -4.6922818e-05   0.45172571 0.0067646289            0   0.44496108    1.3724723     1.824198   -1.4191072 
 1980000   0.90400973 1.5967919e-05   0.46178806  0.010146066            0     0.451642    1.3492345    1.8110226    2.9147251 
 1985000   0.94899557 -7.3946541e-06   0.40053145 0.0094706042            0   0.39106085    1.4163759    1.8169073    1.3057889 
 1990000   0.92974435 4.511489e-05   0.41598621 0.0038390363            0   0.41214717    1.3876434    1.8036296    4.9219708 
 1995000   0.89686199 -5.1473866e-05   0.46612869 0.0040486924            0      0.46208    1.3385665    1.8046952   -1.7531784 
 2000000   0.91159233 -7.1618724e-06    0.4287833  0.004067645            0   0.42471565    1.3605516    1.7893349    1.2943062 
 2005000   0.91854388 -2.4206778e-05   0.42489293 0.0028269047            0   0.42206602    1.3709267    1.7958197   0.12264714 
 2010000   0.93919439 5.6188878e-05   0.40727149 0.0013513025            0   0.40592019    1.4017476    1.8090191    5.6927943 
 2015000   0.89135081 -7.2392759e-05   0.44685162 0.0007793687            0   0.44607225    1.3303411    1.7771927   -3.2265948 
 2020000   0.95258588 -2.6804955e-06   0.36927867 8.4505505e-05            0   0.36919416    1.4217344    1.7910131    1.6057373 
 2025000   0.93303093 5.9721142e-05   0.39156481 0.00030060176            0   0.39126421    1.3925487    1.7841135    5.9120388 
 2030000    0.9259841 4.5115122e-05   0.40078417 0.00034505377            0   0.40043911    1.3820313    1.7828154    4.9011727 
 2035000   0.89407654 -2.1016353e-05   0.45057756 0.00087569906            0   0.44970186    1.3344092    1.7849868    0.3323365 
 2040000    0.8927222 -7.3519999e-05    0.4354809 0.0068358384            0   0.42864506    1.3323879    1.7678688   -3.3138336 
 2045000   0.88309789 4.9013495e-05   0.43464752  0.024030429            0   0.41061709    1.3180236    1.7526711    5.1404839 
 2050000   0.89082026 -2.923863e-05   0.42396438  0.015459022            0   0.40850536    1.3295492    1.7535136  -0.26746048 
 2055000   0.83843865 -2.1108056e-05   0.51743264 0.0088682087            0   0.50856443    1.2513697    1.7688023   0.30981348 
 2060000   0.88263868 -4.5198347e-05   0.44944091  0.018594724            0   0.43084618    1.3173382    1.7667791   -1.3573306 
 2065000   0.88133926 -3.2168285e-05   0.45284401  0.017962401            0   0.43488161    1.3153988    1.7682429  -0.45522898 
 2070000   0.86655443 8.6150714e-06   0.47096304 0.0062895051            0   0.46467353    1.2933325    1.7642955    2.3597693 
 2075000   0.88341431 -3.0797412e-05   0.44742438 0.00082849723            0   0.44659588    1.3184959    1.7659202  -0.36279691 
 2080000   0.88918587 -6.7521469e-06   0.46312705 0.0012537286            0   0.46187332    1.3271099     1.790237    1.3235286 
 2085000   0.87070368 2.6753249e-05   0.47629665 0.0070358719            0   0.46926078    1.2995252    1.7758219    3.6250065 
 2090000   0.84244019 -4.8639024e-05   0.52172671  0.012191168            0   0.50953554     1.257342    1.7790687   -1.5828606 
 2095000   0.90761736 6.4636888e-05   0.44053756 0.0097831989            0   0.43075437    1.3546189    1.7951565    6.2628582 
 2100000   0.89645762 -4.3961136e-05   0.45435334 0.0098648327            0   0.44448851     1.337963    1.7923163   -1.2462774 
 2105000   0.89382622 -7.3318575e-05   0.47072883 0.0046950546            0   0.46603377    1.3340356    1.8047645   -3.2630155 
 2110000    0.9477499 -3.3090333e-05   0.40927608 0.0022677373            0   0.40700835    1.4145167    1.8237928  -0.46341104 
 2115000   0.93010905 -1.2767558e-05    0.4340365  0.015834721            0   0.41820178    1.3881878    1.8222243   0.93973067 
 2120000   0.90448983 5.4073934e-05   0.48687586 0.0089563729            0   0.47791948    1.3499511    1.8368269    5.5744172 
 2125000   0.94815426 6.5490946e-05   0.41751299 0.0026773234            0   0.41483567    1.4151202    1.8326332    6.3593674 
 2130000   0.91364837 6.8184172e-06   0.46138947 0.0013174733            0   0.46007199    1.3636202    1.8250097    2.2962987 
 2135000   0.94321121 1.643938e-05   0.43627975 0.00048145964            0   0.43579829    1.4077427    1.8440225    2.9803124 
 2140000   0.94613057 4.8499748e-05    0.4622632 0.0032468057            0   0.45901639    1.4120999    1.8743631    5.2266657 
 2145000   0.94127072 9.8691617e-06   0.47361127 0.0071256007            0   0.46648567    1.4048466    1.8784578    2.5606143 
 2150000    0.9878514 2.5216069e-06   0.41480489 0.0049277814            0   0.40987711    1.4743682    1.8891731    2.0634666 
 2155000   0.95494646 2.3146402e-06   0.47344205 0.0035680965            0   0.46987396    1.4252576    1.8986997    2.0586876 
 2160000   0.97781274 -2.0288498e-05   0.44423211 0.0017548203            0   0.44247729    1.4593855    1.9036176   0.50127663 
 2165000   0.98156151 -1.4773956e-05    0.4477399 0.0022674247            0   0.44547248    1.4649806    1.9127205   0.89154464 
 2170000   0.97845592 -7.9049715e-06   0.46328594 0.0036311596            0   0.45965478    1.4603455    1.9236314    1.3772398 
 2175000   0.98157557 1.7666446e-06   0.43838214 0.0042989475            0   0.43408319    1.4650015    1.9033837    2.0254942 
 2180000   0.99362429 5.7645927e-05   0.43134046 0.0019642374            0   0.42937622    1.4829842    1.9143247    5.8988112 
 2185000   0.97504942 -2.2275384e-05   0.46662955 0.0030981728            0   0.46353138    1.4552613    1.9218908   0.38221624 
 2190000    1.0070565 -4.6173441e-05   0.42435486 0.0073808591            0   0.41697401    1.5030318    1.9273866   -1.2641216 
 2195000   0.92473632 -9.1171809e-06   0.54451539  0.026900497            0   0.51761489     1.380169    1.9246844    1.2945048 
 2200000   0.95166699 5.3415523e-06   0.49595257  0.013120861            0   0.48283171     1.420363    1.9163156    2.2855236 
 2205000   0.98047444 7.2993857e-06   0.45969771  0.012707022            0   0.44699069    1.4633581    1.9230558    2.4275894 
 2210000   0.98995526 -1.0724173e-05   0.45927999  0.019631948            0   0.43964804    1.4775082    1.9367882    1.1955334 
 2215000   0.97633511 -2.498131e-05   0.49590096 0.0075762895            0   0.48832467    1.4571801    1.9530811   0.22637297 
 2220000    1.0138846 2.2401347e-05   0.42618219 0.0035118939            0   0.42267029    1.5132228     1.939405    3.4877861 
 2225000   0.96335044 -1.2714959e-05   0.48722424 0.0084535138            0   0.47877073    1.4378005    1.9250248    1.0461668 
 2230000   0.95195305 2.4794889e-05   0.48946315   0.02547194            0   0.46399121    1.4207899    1.9102531    3.6240758 
 2235000   0.98165189 -4.4466549e-05   0.44187132  0.017757373            0   0.42411395    1.4651154    1.9069868   -1.1665411 
 2240000   0.95688699 3.4106013e-05    0.4844429  0.016146216            0   0.46829668    1.4281538    1.9125967    4.2700043 
 2245000   0.93571591 2.3233646e-05   0.52558693  0.020150046            0   0.50543689     1.396556    1.9221429    3.5280525 
 2250000   0.97806765 2.6326067e-05   0.47535342  0.011676032            0   0.46367739     1.459766    1.9351194    3.7547771 
 2255000    0.9640924 -5.9459818e-05   0.48539745 0.0085341553            0   0.47686329    1.4389079    1.9243054   -2.1855573 
 2260000   0.98196043 1.4179713e-05   0.48200307 0.0018870836            0   0.48011599    1.4655759     1.947579    2.9276808 
 2265000    1.0072924 1.1906126e-05   0.44451891 0.00011994087            0   0.44439897    1.5033839    1.9479028    2.7708543 
 2270000    1.0122612 -1.6939505e-05   0.43545615 0.00036944453            0    0.4350867    1.5107998     1.946256   0.77539737 
 2275000   0.97158965 -3.3057501e-05    0.5052018 0.0094617297            0   0.49574007    1.4500976    1.9552993   -0.3296351 
 2280000    1.0232739 -3.3921014e-05   0.44143201 0.0058945528            0   0.43553745    1.5272363    1.9686683  -0.37595214 
 2285000    1.0295878 -3.3988726e-05   0.42746107 0.0026404364            0   0.42482063    1.5366598    1.9641209  -0.38517985 
 2290000    1.0405884 3.506011e-06   0.45310387 0.0047747587            0   0.44832911    1.5530782    2.0061821    2.2485176 
 2295000   0.99214966 1.5885387e-05   0.51149738 0.0094771256            0   0.50202026    1.4807834    1.9922807    3.0902787 
 2300000    1.0047381 1.222121e-05   0.49294715  0.012732163            0   0.48021499    1.4995717    1.9925188    2.8372488 
 2305000   0.98057224 -5.0775271e-05    0.5185272  0.010832909            0   0.50769429    1.4635041    1.9820313   -1.5275554 
 2310000    1.0316861 -1.2158833e-05   0.44786422 0.0025965018            0   0.44526772    1.5397915    1.9876557    1.1472372 
 2315000   0.96980663 -2.5557289e-05   0.50693384 0.0016054581            0   0.50532839    1.4474364    1.9543702    0.1878504 
 2320000   0.97842398 -6.6416282e-06   0.50681509  0.003744925            0   0.50307016    1.4602978    1.9671129    1.5080435 
 2325000    1.0196673 -4.5817827e-06   0.44179792 0.0016108378            0   0.44018708    1.5218534    1.9636513    1.6469585 
 2330000   0.99141983 2.7222862e-05   0.47105674 0.0012702206            0   0.46978652    1.4796941    1.9507508    3.8323951 
 2335000    1.0063248 3.9731504e-06    0.4504765 0.0028042528            0   0.44767224    1.5019398    1.9524163    2.2270404 
 2340000    1.0269292 -2.4222923e-05   0.43855259  0.006747018            0   0.43180557    1.5326918    1.9712444   0.29695595 
 2345000   0.99775985 5.9940888e-05   0.48397111  0.011041422            0   0.47292968    1.4891566    1.9731277    6.1162419 
 2350000   0.99998336 2.5357172e-05    0.4783855 0.0020017476            0   0.47638375    1.4924752    1.9708607    3.7235484 
 2355000   0.98932194 -2.93044e-05   0.49264064 0.0076519345            0   0.48498871     1.476563    1.9692036 -0.056316454 
 2360000    1.0065261 -9.3670601e-06   0.45416892  0.011008291            0   0.44316063    1.5022403    1.9564092     1.308958 
 2365000   0.95612059 -6.84179e-05    0.5182096  0.019646252            0   0.49856335      1.42701    1.9452196   -2.7838257 
 2370000    0.9640137 -3.6088485e-06    0.5303908  0.013773794            0   0.51661701    1.4387904    1.9691813    1.7197376 
 2375000   0.94579044 2.6732052e-05   0.54429649 0.0051687687            0   0.53912772    1.4115922    1.9558887    3.8036081 
 2380000     0.996021 -2.5733022e-05   0.47237838 0.0051233406            0   0.46725504    1.4865613    1.9589397   0.18027326 
 2385000    1.0298366 4.6431415e-05   0.41258816  0.011421316            0   0.40116684    1.5370311    1.9496193    5.1589587 
 2390000   0.98287367 -2.6817935e-05   0.47808744 0.0036232138            0   0.47446423     1.466939    1.9450264  0.091370742 
 2395000   0.99944443 1.0621776e-05   0.44301037 0.0082415002            0   0.43476887    1.4916708    1.9346812    2.6688583 
 2400000      1.01466 3.9361002e-06    0.4277603  0.013549727            0   0.41421057      1.51438    1.9421403    2.2142036 
 2405000   0.97076841 -1.5100031e-05   0.51336132 0.0096126918            0   0.50374863    1.4488718    1.9622332   0.91851901 
 2410000     1.023643 2.3473571e-05   0.43363545  0.010260869            0   0.42337459    1.5277871    1.9614226    3.5839158 
 2415000    1.0053961 -4.2075693e-05   0.44704358 0.00085433307            0   0.44618924    1.5005537    1.9475973  -0.96067463 
 2420000    1.0077549 1.8527585e-05   0.42037165 2.0746892e-05            0   0.42035091    1.5040742    1.9244459    3.2050726 
 2425000    1.0163665 -2.5059179e-05    0.4185821            0            0    0.4185821    1.5169269     1.935509   0.20341858 
 2430000   0.97437105 5.0014738e-06   0.46957461 8.7712314e-07            0   0.46957374    1.4542488    1.9238234    2.2695253 
 2435000   0.99411274 1.1749978e-05     0.453041 0.00068951138            0   0.45235149    1.4837133    1.9367543    2.7489127 
 2440000   0.96389985 -3.4703889e-05   0.49962694   0.00418671            0   0.49544023    1.4386205    1.9382475  -0.46048537 
 2445000    1.0037082 5.0981251e-06   0.45516519 0.0065080598            0   0.44865713    1.4980345    1.9531997    2.3055821 
 2450000    1.0230305 -5.3409068e-06   0.41505004 0.0096772153            0   0.40537282     1.526873    1.9419231    1.5727596 
 2455000    1.0221479 -1.7639473e-05   0.40644298  0.011884772            0   0.39455821    1.5255558    1.9319988   0.71275844 
 2460000    1.0119897 7.0221624e-05   0.44190949  0.014891104            0   0.42701839    1.5103946    1.9523041    6.8060228 
 2465000   0.99581493 -3.3434928e-05   0.48096101  0.034792036            0   0.44616898    1.4862538    1.9672148  -0.34380745 
 2470000    1.0270525 -4.1718166e-05   0.42940721 0.0044715317            0   0.42493568    1.5328759    1.9622831  -0.92127657 
 2475000    1.0253645 -2.0288798e-05   0.46383397 0.0037975427            0   0.46003642    1.5303565    1.9941904    0.5918287 
 2480000    1.0354147 1.368297e-05    0.4341997 0.0038893063            0   0.43031039    1.5453564    1.9795561     2.925323 
 2485000   0.99257589 2.4518284e-05   0.48893701 0.0044206786            0   0.48451633    1.4814195    1.9703565    3.6650603 
 2490000    1.0250611 3.305478e-05   0.43488122 0.0023878358            0   0.43249339    1.5299037    1.9647849    4.2495313 
 2495000    1.0168306 -3.4170122e-05   0.44612494  0.001123564            0   0.44500137    1.5176197    1.9637446  -0.39809421 
 2500000    1.0612456 -1.0504773e-05    0.3857652 0.0038258518            0   0.38193935    1.5839091    1.9696743    1.2435844 
 2505000   0.98566992 -1.9881184e-05   0.49231328 0.0076676939            0   0.48464558    1.4711124    1.9634256   0.58923821 
 2510000   0.99284903 -2.6763627e-05   0.49293863  0.005982484            0   0.48695615    1.4818272    1.9747658   0.12486393 
 2515000    1.0124059 -1.9457348e-05   0.46378621  0.025044924            0   0.43874129    1.5110158     1.974802   0.62991011 
 2520000    1.0253498 3.8991124e-05   0.43039844 0.0096059197            0   0.42079252    1.5303346     1.960733    4.6557995 
 2525000    1.0115035 5.0301438e-06   0.41644345 0.0015987292            0   0.41484472     1.509669    1.9261124    2.2737959 
 2530000   0.97300341 3.7792602e-05   0.48621762 0.0011649916            0   0.48505262    1.4522076    1.9384252    4.5506498 
 2535000   0.98941558 8.2335157e-06   0.45791275 0.0025449526            0    0.4553678    1.4767027    1.9346155    2.5037161 
 2540000    1.0120171 -8.3143447e-05   0.42050379 0.0058680414            0   0.41463575    1.5104356    1.9309393   -3.8159357 
 2545000     0.967185 -2.9579753e-05   0.48857054  0.016939685            0   0.47163085    1.4435236    1.9320941   -0.1124584 
 2550000   0.94533666 -2.3785645e-05   0.52593849  0.040529876            0   0.48540862     1.410915    1.9368535   0.29278964 
 2555000    1.0055615 2.2672585e-05    0.4418433  0.012116977            0   0.42972633    1.5008006    1.9426439     3.509773 
 2560000    1.0203484 3.4372482e-05    0.4343659 0.0017517928            0   0.43261411    1.5228699    1.9572358    4.3330618 
 2565000   0.99881621 1.5595502e-05   0.45772851  0.013391469            0   0.44433704    1.4907332    1.9484617    3.0264228 
 2570000     1.003896 -3.380137e-05    0.4580698  0.004678171            0   0.45339163    1.4983148    1.9563846  -0.37996613 
 2575000   0.98388447 -4.3985515e-05   0.48284241 0.00015498325            0   0.48268743    1.4684476      1.95129   -1.0889888 
 2580000    1.0105067 3.7561568e-05   0.41893228 0.0010240802            0    0.4179082    1.5081813    1.9271136    4.5233691 
 2585000   0.94840298 -3.7603493e-05   0.50709748 0.0063374076            0   0.50076007    1.4154914    1.9225889  -0.67656451 
 2590000    1.0020674 2.4606137e-05   0.43504872 0.0091299724            0   0.42591874    1.4955857    1.9306344    3.6314106 
 2595000   0.98360223 -3.0547078e-06   0.46072547  0.041690974            0    0.4190345    1.4680263    1.9287518    1.7176104 
 2600000    1.0022484 4.3779318e-05   0.45284191  0.024015917            0     0.428826    1.4958557    1.9486976    4.9747241 
 2605000   0.97951486 -4.12666e-05   0.47924429  0.011572954            0   0.46767134    1.4619259    1.9411702  -0.91117717 
 2610000   0.97912607 -1.1545468e-05   0.48670068  0.008161403            0   0.47853928    1.4613457    1.9480463    1.1500236 
 2615000   0.98687227 -1.6812631e-05    0.4907755 0.0056091641            0   0.48516634    1.4729069    1.9636824    0.8015933 
 2620000   0.97983444 -4.0264132e-06   0.50108641  0.018061598            0   0.48302481    1.4624029    1.9634893    1.6851836 
 2625000    1.0235361 1.8320365e-05   0.44767862  0.014199257            0   0.43347936    1.5276276    1.9753063    3.2416099 
 2630000   0.99371756 1.676196e-05   0.48797161 0.0055459295            0   0.48242568    1.4831235    1.9710951    3.1296817 
 2635000    1.0168607 1.4913222e-06   0.45344516 0.0050795243            0   0.44836564    1.5176646    1.9711098      2.07419 
 2640000    1.0178785 -2.0785171e-05   0.45788202 0.0038628689            0   0.45401915    1.5191836    1.9770656   0.54039463 
 2645000   0.97580444 6.2577892e-05   0.53322498 0.0053717229            0   0.52785326    1.4563881    1.9896131     6.314997 
 2650000    1.0227595 -2.163344e-05   0.46001178  0.002560887            0   0.45745089    1.5264685    1.9864803   0.49117694 
 2655000    0.9656258 -7.7364313e-05    0.5391561 0.0029833202            0   0.53617278    1.4411965    1.9803526   -3.3670687 
 2660000   0.96478243 -2.2941689e-05   0.53058085 0.0076531725            0   0.52292768    1.4399378    1.9705186   0.38478911 
 2665000   0.94132252 -2.5777495e-05    0.5674234   0.01210434            0   0.55531906    1.4049239    1.9723473   0.19060684 
 2670000   0.99255707 2.3120949e-05   0.49486857 0.0079111115            0   0.48695746    1.4813914      1.97626      3.57438 
 2675000    1.0377245 2.5045452e-06   0.42175863 0.0054053112            0   0.41635332    1.5488038    1.9705624    2.1436766 
 2680000    1.0370521 -2.0057326e-05   0.43273777 0.0051194081            0   0.42761836    1.5478003     1.980538   0.59417567 
 2685000   0.99722633 -2.105454e-05   0.49014294 0.0062051552            0   0.48393778    1.4883603    1.9785032    0.5232134 
 2690000    1.0314841 -5.9237443e-06   0.44268829 0.0087778457            0   0.43391045      1.53949    1.9821783    1.5727291 
 2695000   0.97872701 2.009198e-05   0.52343406  0.017553484            0   0.50588058    1.4607501    1.9841841    3.3729418 
 2700000    1.0195248 2.7290372e-06   0.46296285  0.022677055            0    0.4402858    1.5216408    1.9846037    2.1732347 
 2705000   0.96955908 -3.4019788e-06   0.52581039 0.0088971774            0   0.51691321    1.4470669    1.9728773    1.7377326 
 2710000    1.0108841 -8.6299252e-05   0.47039979 0.0052127525            0   0.46518704    1.5087445    1.9791443     -3.98586 
 2715000    1.0091522 2.5280959e-05   0.46030181 0.0011647161            0    0.4591371    1.5061597    1.9664615    3.7138814 
 2720000   0.99511661 -2.5292745e-05   0.48663787  0.005200373            0    0.4814375    1.4852115    1.9718494    0.2236149 
 2725000   0.99655155 1.6454871e-05   0.47927001  0.023426141            0   0.45584387    1.4873532    1.9666232    3.1039838 
 2730000    1.0090503 1.2350552e-05   0.46323155  0.013508775            0   0.44972278    1.5060075    1.9692391    2.8229092 
 2735000    1.0138482 1.6306289e-05   0.46480448 0.00044580636            0   0.46435867    1.5131685     1.977973    3.1050637 
 2740000    1.0603357 3.8831291e-05   0.39101977 1.1840804e-05            0   0.39100793     1.582551    1.9735708    4.6575896 
 2745000    1.0349392 -9.9946068e-06   0.45084123 0.00023459493            0   0.45060663    1.5446467     1.995488    1.3046607 
 2750000    1.0247063 -2.8030435e-05   0.49255967 0.0019026271            0   0.49065704    1.5293742    2.0219339  0.084470202 
 2755000    1.0178601 -5.6146214e-07   0.49954233 0.0043474682            0   0.49519486    1.5191561    2.0186985    1.9798902 
 2760000    1.0181436 -1.1147554e-05   0.46187121 0.0058240972            0   0.45604712    1.5195794    1.9814506    1.2109317 
 2765000    1.0126795 8.3805888e-07   0.47375011 0.0085830537            0   0.46516706    1.5114241    1.9851743    2.0431009 
 2770000    1.0391897 -1.438931e-05    0.4274507 0.0044417626            0   0.42300894    1.5509906    1.9784413   0.98385221 
 2775000    1.0454571 5.5447573e-05   0.41822538 0.0020702277            0   0.41615515    1.5603447    1.9785701    5.8111063 
 2780000   0.99107578 -9.8178132e-06   0.50022957 0.0083218659            0   0.49190771    1.4791806    1.9794102    1.3008029 
 2785000   0.97358182 -3.3393787e-05   0.52168092  0.019495793            0   0.50218513    1.4530709    1.9747518   -0.3334268 
 2790000   0.99527611 -2.7353411e-05   0.47367294 0.0095714294            0   0.46410151    1.4854496    1.9591225  0.068454763 
 2795000   0.97635903 -3.8049774e-05   0.50284282 0.0057733964            0   0.49706942    1.4572158    1.9600587  -0.66994174 
 2800000   0.99630377 -1.9821629e-05   0.47538338 0.0026984209            0   0.47268495    1.4869834    1.9623668   0.59229578 
 2805000    1.0108062 -5.2045882e-06   0.44763445  0.012876109            0   0.43475834    1.5086282    1.9562627    1.5965215 
 2810000   0.98463187   3.3044e-05   0.46254283  0.011087182            0   0.45145564    1.4695631    1.9321059    4.2161072 
 2815000   0.94858412 -2.1869669e-05   0.53266188   0.01860401            0   0.51405787    1.4157618    1.9484237   0.43679214 
 2820000   0.98650129 4.1989053e-05   0.48308018  0.020447353            0   0.46263283    1.4723532    1.9554334    4.8577167 
 2825000    1.0141586 -9.1505523e-05   0.44333317 0.0083504544            0   0.43498272    1.5136317    1.9569649   -4.3678969 
 2830000    1.0237487 7.4743694e-06   0.44567313  0.005002125            0     0.440671    1.5279449     1.973618    2.4902464 
 2835000    0.9752873 6.8897046e-06   0.52430161 0.0021840562            0   0.52211755    1.4556163    1.9799179    2.4561343 
 2840000    1.0256849 3.1078824e-05   0.45484852 0.0020332226            0    0.4528153    1.5308348    1.9856833    4.1338516 
 2845000    1.0132718 4.2802477e-05   0.48857519  0.003308716            0   0.48526648    1.5123082    2.0008834    4.9593906 
 2850000   0.97349625 1.6026515e-05    0.5301868 0.0056310844            0   0.52455571    1.4529432    1.9831299    3.0908827 
 2855000    1.0119145 -5.8216134e-06    0.4712098 0.0080349936            0   0.46317481    1.5102824    1.9814922    1.5791023 
 2860000   0.98851823 -8.5304023e-05   0.52908499  0.012699645            0   0.51638534    1.4753635    2.0044484   -3.8917656 
 2865000    1.0484522 3.4292791e-05   0.42984111  0.010815762            0   0.41902535     1.564815    1.9946561    4.3649738 
 2870000   0.97649738 -1.7386692e-05   0.55136051 0.0061520423            0   0.54520847    1.4574223    2.0087829   0.80701467 
 2875000   0.99262081 1.8927384e-06   0.55770013 0.0057889455            0   0.55191118    1.4814866    2.0391867    2.1700128 
 2880000    1.0358376 -9.3871234e-06   0.51324456 0.0041853737            0   0.50905918    1.5459877    2.0592322    1.4103942 
 2885000    1.0397827 -3.0143388e-05   0.51144374   0.00332231            0   0.50812143    1.5518757    2.0633195 -0.020191513 
 2890000    1.0484855 9.5705744e-05   0.50299706 0.00071786062            0    0.5022792    1.5648646    2.0678617    8.6830427 
 2895000    1.0473988 -6.6773727e-06   0.49297926   0.02012657            0   0.47285269    1.5632427     2.056222     1.594682 
 2900000    1.0339588 -5.7301374e-05   0.51688115 0.0023316032            0   0.51454955    1.5431835    2.0600647   -1.9006063 
 2905000    1.0197444 -1.6661656e-05    0.5358189  0.007771623            0   0.52804727    1.5219686    2.0577875   0.90613378 
 2910000     1.043202 -3.6118966e-06   0.49747407  0.015830773            0   0.48164329    1.5569789     2.054453    1.8047987 
 2915000   0.97202392 -6.1693838e-05   0.58887649 0.0066713492            0   0.58220514    1.4507457    2.0396222   -2.2246559 
 2920000   0.98148926 -6.9701544e-07   0.57672133 0.0074289278            0    0.5692924    1.4648727     2.041594    1.9934163 
 2925000    1.0023543 -1.1169681e-06   0.53329595  0.016871427            0   0.51642453    1.4960138    2.0293097    1.9521049 
 2930000   0.98430401 -3.7001054e-06   0.56924168 0.0060480602            0   0.56319362    1.4690737    2.0383154    1.7825641 
 2935000    1.0147371 -3.5180465e-05   0.52728597  0.006444569            0   0.52084141    1.5144951    2.0417811  -0.38989266 
 2940000    0.9967795 3.1679387e-06   0.54599058  0.016392782            0    0.5295978    1.4876934     2.033684    2.2526519 
 2945000     1.017676 -1.2922367e-05   0.52637465  0.005619178            0   0.52075548    1.5188814    2.0452561    1.1520621 
 2950000    1.0091376 -2.8982517e-05   0.53610544 0.0073509351            0    0.5287545    1.5061379    2.0422434  0.038971822 
 2955000    1.0304638 -8.3462327e-06   0.51007548 0.0053557987            0   0.50471968    1.5379673    2.0480428    1.4711512 
 2960000    1.0182985 -3.6923835e-06    0.5346876 0.0021393102            0   0.53254829    1.5198106    2.0544982    1.7992806 
 2965000    1.0257579 9.2893172e-06   0.52469748 0.0059749587            0   0.51872252    1.5309437    2.0556411    2.6977187 
 2970000    1.0264357 3.4136959e-05   0.52334359  0.016377558            0   0.50696603    1.5319553    2.0552989    4.4148455 
 2975000    1.0216734 -1.1147394e-05   0.49792467 0.0097137929            0   0.48821088    1.5248475    2.0227721    1.2522643 
 2980000   0.99774853 -3.1664504e-05   0.52759098 0.0034235901            0   0.52416739    1.4891397    2.0167307  -0.17191986 
 2985000   0.98888807 -2.1870796e-05   0.53857179 0.0081833789            0   0.53038841    1.4759154    2.0144872   0.50277779 
 2990000    1.0348331 6.0270674e-05   0.47114748 0.0064756721            0    0.4646718    1.5444884    2.0156359    6.1815449 
[...]
19285000   0.98358276 1.8988966e-05   0.44743383 0.0058695989            0   0.44156423    1.4679973    1.9154311    3.2279485 
19290000    1.0010012 1.5392364e-05   0.41889465 0.0085074794            0   0.41038717    1.4939942    1.9128889    2.9768091 
19295000   0.99538119 -2.2119254e-05   0.42421711 0.0070842337            0   0.41713288    1.4856064    1.9098235    0.3809407 
19300000   0.93957911 -3.7123017e-06    0.5123891  0.022994094            0   0.48939501    1.4023218    1.9147109    1.6581166 
19305000   0.99224471 -1.5095859e-07   0.41338264  0.014248324            0   0.39913432    1.4809252    1.8943079    1.8838736 
19310000   0.92666455 -5.3585308e-05   0.51075967  0.044663054            0   0.46609661    1.3830468    1.8938065     -1.81001 
19315000   0.95636235 -3.2495915e-05   0.45381749   0.02261527            0   0.43120222    1.4273708    1.8811883  -0.36492935 
19320000   0.94113795 3.3094621e-05   0.49889753 0.0082776586            0   0.49061987    1.4046484    1.9035459    4.1910461 
19325000   0.95862745 3.8914616e-05   0.46453662  0.013457824            0   0.45107879    1.4307515    1.8952881    4.5850664 
19330000   0.99602694 -1.1889437e-05   0.40484721 0.0041737104            0    0.4006735    1.4865702    1.8914174    1.0696195 
19335000   0.97292153 3.1947332e-05   0.43471773 0.0088209765            0   0.42589675    1.4520854    1.8868031    4.0950027 
19340000   0.91440779 -2.0398687e-05   0.51516731  0.026915251            0   0.48825206    1.3647536    1.8799209   0.46996366 
19345000   0.90261639  -2.5399e-05   0.51571523   0.03338303            0    0.4823322     1.347155    1.8628702   0.10729133 
19350000   0.92855272 1.5903634e-07   0.47624466  0.016580999            0   0.45966366    1.3858649    1.8621096    1.8731022 
19355000   0.93819595 -2.0536981e-05   0.44991739 0.0065097584            0   0.44340763    1.4002575    1.8501749    0.4306587 
19360000   0.93120434 1.6016239e-06   0.45942811   0.01833411            0     0.441094    1.3898225    1.8492506    1.9599548 
19365000   0.94501974 1.5769007e-05   0.44641757   0.02987842            0   0.41653915     1.410442    1.8568595    2.9468133 
19370000   0.89342354 -5.6389222e-05   0.52721964  0.024508697            0   0.50271094    1.3334346    1.8606543   -2.0369688 
19375000   0.93612012 1.1707419e-05   0.46722056  0.027591879            0   0.43962868    1.3971593    1.8643798    2.6735966 
19380000   0.94788753 5.0364435e-05   0.46205792  0.017220077            0   0.44483784    1.4147221    1.8767801    5.3579698 
19385000   0.94646108 1.7748506e-05   0.46737098  0.011813854            0   0.45555713    1.4125932    1.8799641    3.1067409 
19390000   0.92587583 3.484986e-05   0.48726933 0.0040641274            0    0.4832052    1.3818697     1.869139    4.2779614 
19395000   0.93423951 5.4481681e-06   0.47010727  0.016291818            0   0.45381545    1.3943525    1.8644597    2.2410371 
19400000   0.91696188 -1.6638866e-05   0.49871186   0.03673836            0    0.4619735    1.3685656    1.8672775   0.71719904 
19405000   0.92638786 -5.1611028e-05   0.45736968   0.02874767            0   0.42862201    1.3826339    1.8400036   -1.7273507 
19410000   0.88143033 -1.6283112e-05   0.51932513  0.032542639            0   0.48678249    1.3155348    1.8348599   0.70937122 
19415000   0.89419994 -5.2545078e-06   0.49907591  0.021256487            0   0.47781943    1.3345934    1.8336693    1.4704777 
19420000   0.92162179 2.2445947e-05    0.4825313  0.036848267            0   0.44568303    1.3755205    1.8580518    3.4095157 
19425000   0.95043721 -1.9049969e-05    0.4466936   0.01766236            0   0.42903124    1.4185275    1.8652211   0.54848729 
19430000   0.95072813 -5.554048e-06   0.46112963  0.016874103            0   0.44425553    1.4189617    1.8800914    1.4961956 
19435000   0.92932112 -1.0643681e-05   0.47806833  0.014977816            0   0.46309051    1.3870118    1.8650801    1.1293889 
19440000   0.91044522 8.9006671e-06   0.50370734  0.026007933            0    0.4776994    1.3588395    1.8625468    2.4777609 
19445000   0.93703611 2.8320177e-05   0.46830581  0.026219426            0   0.44208639    1.3985264    1.8668322    3.8243228 
19450000   0.93003837 5.1838111e-05   0.48936032  0.010219551            0   0.47914077    1.3880823    1.8774426    5.4604928 
19455000   0.95533919 -1.3168715e-06   0.45363546  0.019106895            0   0.43452856    1.4258437    1.8794792     1.788457 
19460000   0.93990583 -1.686599e-05   0.49208395  0.023072724            0   0.46901122    1.4028094    1.8948934   0.72911616 
19465000   0.98131043 1.0609915e-06   0.44598017  0.014873815            0   0.43110636    1.4646058     1.910586    1.9839217 
19470000   0.95201454 -4.6961168e-05    0.4988548  0.015279008            0   0.48357579    1.4208817    1.9197365   -1.3262194 
19475000   0.94805091 -4.9102754e-05   0.48981735  0.011475917            0   0.47834143     1.414966    1.9047833    -1.489199 
19480000   0.94672795 -7.9499806e-06    0.4946191  0.015706785            0   0.47891232    1.4129915    1.9076106    1.3581079 
19485000   0.99440288 3.4659098e-05   0.41508889  0.030248799            0   0.38484009    1.4841463    1.8992352     4.294872 
19490000   0.97465884 5.8368325e-05   0.45692394  0.046027606            0   0.41089633    1.4546783    1.9116023    5.9460209 
19495000   0.92069484 3.3880429e-05    0.5491731  0.047722073            0   0.50145103     1.374137    1.9233101    4.2651254 
19500000   0.98040511 4.3207015e-05   0.47357215  0.034981105            0   0.43859104    1.4632546    1.9368268    4.9232956 
19505000    1.0037595 1.3574646e-05   0.44507303  0.017073911            0   0.42799911     1.498111     1.943184    2.8814635 
19510000    1.0023372 -5.2452533e-05   0.42616365  0.010384334            0   0.41577932    1.4959883     1.922152   -1.7033671 
19515000   0.93496663 1.5111339e-05   0.50699741  0.021778345            0   0.48521906    1.3954377    1.9024351    2.9469309 
19520000   0.94025759 -1.5120557e-05   0.49919752  0.014862575            0   0.48433494    1.4033345     1.902532   0.85739909 
19525000    0.9759042 -1.0849713e-05   0.43633635   0.01150661            0   0.42482974     1.456537    1.8928734    1.1429412 
19530000   0.90888392 3.636982e-05   0.53031434  0.024544976            0   0.50576936    1.3565093    1.8868236    4.4007056 
19535000   0.97255246 1.3643309e-05    0.4543481   0.02351302            0   0.43083508    1.4515345    1.9058826    2.8489082 
19540000   0.92572515 -1.0280982e-05    0.5198412   0.01475749            0   0.50508371    1.3816448     1.901486    1.1908645 
19545000   0.95110443 -8.0878719e-06   0.49987071  0.039079657            0   0.46079106    1.4195234    1.9193941    1.3603604 
19550000    1.0034805 2.0745249e-06   0.42117391  0.019816067            0   0.40135785    1.4976946    1.9188685    2.0622597 
19555000   0.98597764 3.1198791e-05   0.45677254  0.017745963            0   0.43902657    1.4715716    1.9283442    4.0848046 
19560000   0.98778806 5.3219384e-05   0.46937427  0.027373759            0   0.44200051    1.4742737    1.9436479    5.6221718 
19565000   0.96281866 7.6817848e-06   0.50041746  0.016731551            0   0.48368591    1.4370068    1.9374243    2.4683893 
19570000   0.98658601 -4.9200709e-05   0.46320175   0.02198321            0   0.44121854    1.4724796    1.9356814   -1.4650716 
19575000    1.0243078 -5.2675166e-05   0.44613453  0.019487375            0   0.42664715    1.5287794     1.974914   -1.6659935 
19580000    1.0250602 -4.33753e-05   0.45931883  0.019943237            0   0.43937559    1.5299024    1.9892212   -1.0088795 
19585000    1.0039313 9.7291475e-06   0.48914235  0.020573949            0    0.4685684    1.4983674    1.9875098    2.6599885 
19590000   0.98489555 5.7446936e-05   0.50816998  0.013263993            0   0.49490599    1.4699566    1.9781266    5.9488588 
19595000    1.0227471 3.6988805e-06   0.45849327  0.012859727            0   0.44563354      1.52645    1.9849433    2.2406099 
19600000   0.99356374 -0.00011027081   0.53784833  0.028514666            0   0.50933367    1.4828939    2.0207422   -5.6011762 
19605000    1.0000731 1.0600873e-05   0.51328912  0.022006079            0   0.49128304     1.492609    2.0058982    2.7386305 
19610000    1.0262936 6.2266418e-05    0.4682185  0.016089082            0   0.45212942    1.5317431    1.9999616    6.3038164 
19615000    1.0329684 3.2190892e-05   0.46391127  0.010554732            0   0.45335654    1.5417054    2.0056166    4.2306511 
19620000   0.98182318 1.2236663e-05   0.53072723  0.018340773            0   0.51238646    1.4653711    1.9960983    2.8418965 
19625000    1.0174793 3.9185139e-05   0.46308801  0.004261057            0   0.45882695    1.5185878    1.9816758    4.6901526 
19630000   0.97637905 -6.453181e-06   0.52547424 0.0023198078            0   0.52315444    1.4572457      1.98272    1.5366761 
19635000    1.0433487 -2.1103005e-05   0.42108871 0.0077170759            0   0.41337163     1.557198    1.9782867   0.51964702 
19640000    1.0293484 7.0345899e-06   0.43243482 0.0083638882            0   0.42407093    1.5363025    1.9687373    2.4549681 
19645000    1.0263184 -4.3751416e-05   0.44564278 0.0047263985            0   0.44091638    1.5317803    1.9774231   -1.0466748 
19650000    1.0078369 -6.5859903e-05   0.46026682  0.013940244            0   0.44632658    1.5041966    1.9644634    -2.587773 
19655000   0.93010916 9.7099999e-06   0.57715159  0.019683207            0   0.55746839    1.3881879    1.9653395    2.6364947 
19660000     1.028001 7.3753415e-06   0.44346211 0.0066706518            0   0.43679146    1.5342915    1.9777536    2.4875372 
19665000   0.99468728 1.1145637e-05    0.4830911  0.007574612            0   0.47551649    1.4845708    1.9676619    2.7380483 
19670000   0.97439345 6.5571793e-05   0.49840149  0.010012958            0   0.48838853    1.4542822    1.9526837    6.4850061 
19675000   0.99566905 5.9088695e-05    0.4702773 0.0090842413            0   0.46119306    1.4860361    1.9563134     6.040524 
19680000     1.028323 1.7857967e-05   0.41433558  0.022418525            0   0.39191705     1.534772    1.9491076    3.1834503 
19685000    1.0228334 1.1073426e-05   0.43499681  0.027874136            0   0.40712267    1.5265788    1.9615756    2.7269708 
19690000   0.90840181 -2.1374136e-05   0.61491453  0.024277772            0   0.59063676    1.3557897    1.9707042   0.49332393 
19695000   0.98109891 2.4497749e-05   0.49798453  0.025222703            0   0.47276183    1.4642901    1.9622747    3.6555591 
19700000    1.0153351 1.2922402e-05   0.44472734 0.0089084182            0   0.43581893    1.5153877     1.960115    2.8533114 
19705000   0.98848157 -2.7816559e-06   0.49089227  0.011636811            0   0.47925546    1.4753087     1.966201     1.773933 
19710000   0.99810522 -9.0357457e-06   0.49881737  0.025430805            0   0.47338657     1.489672    1.9884894    1.3639387 
19715000   0.98410607 4.2057355e-06   0.51389303  0.032342296            0   0.48155073    1.4687783    1.9826713    2.2733718 
19720000    1.0213496 2.6773168e-05   0.46131485  0.026200502            0   0.43511435    1.5243643    1.9856792    3.8362406 
19725000   0.96497084 6.9816238e-07    0.5435484   0.02481898            0   0.51872942     1.440219    1.9837674    2.0320244 
19730000    1.0370307 9.2148742e-06   0.43890335  0.020572715            0   0.41833063    1.5477683    1.9866716    2.6236037 
19735000   0.99419515 -2.2566388e-05   0.50138392  0.020579795            0   0.48080412    1.4838363    1.9852202   0.42543141 
19740000   0.98857563 -7.407109e-06   0.52961454  0.027316906            0   0.50229764    1.4754491    2.0050637    1.4930843 
19745000   0.99990819 1.8219401e-05   0.51796462  0.024015788            0   0.49394883     1.492363    2.0103276    3.2696526 
19750000     0.977586 -8.2673219e-05   0.55473229  0.024103466            0   0.53062882    1.4590471    2.0137794   -3.7005935 
19755000    1.0661079 -5.0317173e-06   0.44022908 0.0086794192            0   0.43154966    1.5911661    2.0313952    1.6836029 
19760000    1.0364529 6.6061613e-05   0.48041751 0.0036112347            0   0.47680627     1.546906    2.0273235    6.5935022 
19765000    1.0082385 4.0349817e-05   0.51062912  0.017854688            0   0.49277443     1.504796    2.0154251    4.8044044 
19770000    1.0401923  4.94338e-05   0.46973446  0.021269741            0   0.44846472     1.552487    2.0222214    5.4390857 
19775000    1.0279872 -1.3897981e-05   0.48871253  0.018001242            0   0.47071129    1.5342709    2.0229835     1.062355 
19780000   0.97953641 -3.0779935e-05   0.57694323  0.033308859            0   0.54363437    1.4619581    2.0389013 -0.088607809 
19785000    1.0268604 6.0345454e-06   0.48435756  0.022915889            0   0.46144167    1.5325891    2.0169466    2.4340544 
19790000    1.0244316 -5.0464218e-06   0.49545879  0.012904601            0   0.48255419    1.5289641    2.0244229    1.6756142 
19795000    1.0116015 -1.3095629e-05   0.51952625 0.0083498022            0   0.51117645    1.5098153    2.0293416    1.1241717 
19800000    1.0349738 -1.0480921e-05   0.48691106 0.0098247999            0   0.47708626    1.5446983    2.0316094    1.3071681 
19805000   0.99571491 -4.8837742e-05   0.53868797  0.010227991            0   0.52845998    1.4861045    2.0247925   -1.3508722 
19810000   0.96641716 -4.7218512e-05   0.58932151   0.03627329            0   0.55304822    1.4423776    2.0316991   -1.2320444 
19815000    1.0219788 2.1829796e-06   0.51577168  0.026258938            0   0.48951274    1.5253033     2.041075    2.1919625 
19820000    1.0390746 7.2095418e-05   0.47140623    0.0217355            0   0.44967073    1.5508188     2.022225    7.0054603 
19825000    1.0051941 -4.5839874e-06   0.52114417  0.031903704            0   0.48924046    1.5002523    2.0213964    1.7045512 
19830000   0.98680098 -2.262956e-05   0.53421395  0.022870153            0   0.51134379    1.4728005    2.0070144    0.4428592 
19835000   0.97686293 -7.4171285e-06   0.55409796  0.028457969            0   0.52563999    1.4579679    2.0120659     1.499394 
19840000    1.0032471 -3.0930828e-05   0.51403108  0.021669594            0   0.49236149    1.4973463    2.0113774  -0.12656141 
19845000   0.95623692 -1.9354409e-05   0.56091607  0.018472762            0    0.5424433    1.4271836    1.9880997    0.6503229 
19850000   0.96232316 -2.1003146e-05   0.54478489  0.021655056            0   0.52312984    1.4362673    1.9810522   0.52931478 
19855000     1.010488 3.4567537e-05   0.48974384  0.018024539            0    0.4717193    1.5081534    1.9978972    4.3872054 
19860000   0.99611851 -1.4703176e-05   0.50422307  0.022969619            0   0.48125345    1.4867069    1.9909299   0.97464643 
19865000   0.96016846 -3.4542058e-06   0.55092359  0.026147859            0   0.52477573    1.4330514     1.983975    1.7452203 
19870000   0.99556733 5.981179e-05    0.5073423  0.020388022            0   0.48695427    1.4858842    1.9932265    6.1274174 
19875000    1.0012453 -6.8500861e-06   0.49519597  0.030295873            0    0.4649001    1.4943586    1.9895546    1.5160767 
19880000   0.99054217 -2.2538639e-05   0.49953205  0.031483236            0   0.46804882    1.4783842    1.9779162   0.42004554 
19885000   0.98659193 3.6751846e-05     0.500649  0.024512207            0   0.47613679    1.4724885    1.9731375    4.5134251 
19890000   0.99572922 3.5107491e-05   0.50332653  0.016303207            0   0.48702332    1.4861259    1.9894524    4.4160821 
19895000    1.0122493 -2.6420394e-05   0.48893246  0.011399976            0   0.47753248     1.510782    1.9997145   0.17353683 
19900000    1.0115136 1.5386382e-05    0.4753501  0.016290346            0   0.45905976    1.5096841    1.9850342     3.048541 
19905000   0.95080319 3.3829912e-06   0.55054987  0.017960027            0   0.53258984    1.4190738    1.9696236     2.203456 
19910000    1.0015833 -6.7338635e-06   0.49099232   0.01739343            0   0.47359889    1.4948631    1.9858555    1.5204108 
19915000   0.95513411 1.8447133e-05   0.55423153  0.031403228            0    0.5228283    1.4255377    1.9797692     3.254835 
19920000    1.0169395 -2.9250253e-05   0.45019322 0.0078290691            0   0.44236415    1.5177823    1.9679755 -0.053802007 
19925000   0.99681435 -3.8343435e-05   0.47143772 0.0046836585            0   0.46675406    1.4877454    1.9591831  -0.69111506 
19930000   0.99555741 2.1778262e-05   0.48462988 0.0085194641            0   0.47611042    1.4858694    1.9704993    3.4758128 
19935000    1.0184564 -2.2833901e-05   0.45056421  0.022184163            0   0.42838005    1.5200461    1.9706103   0.39233109 
19940000   0.97280796 -1.0917417e-05   0.52926249   0.01028303            0   0.51897946    1.4519159    1.9811784    1.2265665 
19945000   0.99431894 0.00010030855   0.46658307  0.020850607            0   0.44573246     1.484021    1.9506041    8.8839311 
19950000   0.93734181 7.2373909e-05   0.56121226 0.0083637719            0   0.55284849    1.3989827    1.9601949    6.9626795 
19955000    1.0203095 4.9742015e-05   0.45615013  0.011646467            0   0.44450367    1.5228119     1.978962    5.4171301 
19960000    1.0036231 1.5237735e-07   0.48709914  0.048223816            0   0.43887533    1.4979075    1.9850066    1.9955389 
19965000   0.96787941 -2.7700213e-05   0.55070245   0.02874581            0   0.52195664      1.44456    1.9952625  0.080623719 
19970000    1.0056932 1.2715844e-06    0.4932035  0.014114988            0   0.47908851    1.5009971    1.9942006    2.0820925 
19975000    1.0207503 1.8010768e-05    0.4965681  0.023677673            0   0.47289043    1.5234699     2.020038    3.2649423 
19980000    1.0257844 -4.2947217e-06   0.49234633   0.01082072            0   0.48152561    1.5309832    2.0233295    1.7264784 
19985000   0.96175652 9.8511023e-06   0.60326162  0.017319494            0   0.58594212    1.4354216    2.0386832    2.7195914 
19990000   0.99918994 -3.7453663e-06   0.53429895  0.016155285            0   0.51814366     1.491291    2.0255899    1.7667102 
19995000    1.0302437 -1.2474542e-05   0.49205431 0.0087090803            0   0.48334523    1.5376387     2.029693    1.1674527 
20000000    1.0364252 1.8414217e-05   0.47306794 0.0057084899            0   0.46735945    1.5468646    2.0199326    3.2927232 
Loop time of 541.604 on 1 procs for 20000000 steps with 200 atoms

Performance: 31905.221 tau/day, 36927.339 timesteps/s
99.6% CPU use with 1 MPI tasks x no OpenMP threads

MPI task timing breakdown:
Section |  min time  |  avg time  |  max time  |%varavg| %total
---------------------------------------------------------------
Pair    | 17.677     | 17.677     | 17.677     |   0.0 |  3.26
Bond    | 57.421     | 57.421     | 57.421     |   0.0 | 10.60
Neigh   | 83.659     | 83.659     | 83.659     |   0.0 | 15.45
Comm    | 191.73     | 191.73     | 191.73     |   0.0 | 35.40
Output  | 0.99908    | 0.99908    | 0.99908    |   0.0 |  0.18
Modify  | 177.61     | 177.61     | 177.61     |   0.0 | 32.79
Other   |            | 12.5       |            |       |  2.31

Nlocal:        200.000 ave         200 max         200 min
Histogram: 1 0 0 0 0 0 0 0 0 0
Nghost:        0.00000 ave           0 max           0 min
Histogram: 1 0 0 0 0 0 0 0 0 0
Neighs:        57.0000 ave          57 max          57 min
Histogram: 1 0 0 0 0 0 0 0 0 0

Total # of neighbors = 57
Ave neighs/atom = 0.285
Ave special neighs/atom = 5.9400000
Neighbor list builds = 4271
Dangerous builds = 0
write_restart restart.equil
System init for write_restart ...
WARNING: Communication cutoff 1.4200000000000002 is shorter than a bond length based estimate of 1.8. This may lead to errors. (../comm.cpp:667)
#--------------End of Input file ------------------
Total wall time: 0:09:01
