LAMMPS (29 Oct 2020)
###################### polyelectrolyte complexation ######################
clear

#Initialization
#------------------------------------
units				lj
dimension			3
atom_style			full
boundary			p p p

#Atom Definition
#-------------------------------------
read_data			data.complexation
Reading data file ...
  orthogonal box = (-80.000000 -80.000000 -80.000000) to (80.000000 80.000000 80.000000)
  1 by 1 by 1 MPI processor grid
  reading atoms ...
  80 atoms
  scanning bonds ...
  1 = max bonds/atom
  reading bonds ...
  79 bonds
Finding 1-2 1-3 1-4 neighbors ...
  special bond factors lj:    0.0      0.0      0.0     
  special bond factors coul:  0.0      0.0      0.0     
     2 = max # of 1-2 neighbors
     2 = max # of 1-3 neighbors
     4 = max # of 1-4 neighbors
     6 = max # of special neighbors
  special bonds CPU = 0.000 seconds
  read_data CPU = 0.002 seconds

#Force definition
#----------------------------------------------
#Bond definition
bond_style			harmonic
bond_coeff			1 5000 1
#Pair definition
special_bonds	lj 0 1 1
Finding 1-2 1-3 1-4 neighbors ...
  special bond factors lj:    0.0      1.0      1.0     
  special bond factors coul:  0.0      0.0      0.0     
     2 = max # of 1-2 neighbors
     2 = max # of 1-3 neighbors
     4 = max # of 1-4 neighbors
     6 = max # of special neighbors
  special bonds CPU = 0.000 seconds
pair_style		 lj/cut 1.12
pair_modify 		 shift yes
pair_coeff	1 1 1 1 1.12

#Timestep etc
#--------------------------------------------
timestep		1e-05
run_style		verlet
velocity		all	create	1	12

#Fix
#---------------------------------------
group polymers type 1
80 atoms in group polymers
fix 1 all nve
fix 2 all langevin 1	1	10	12
fix 3 polymers recenter INIT INIT INIT units box

#Dump
#------------------------------------------------
compute  1 all gyration
variable  myRg2 equal c_1
variable  i equal step
fix  mythermofile all print 5000 "$i ${myRg2}" file radius_of_gyration.dat screen no

thermo_style		 custom step temp press pe evdwl ecoul ebond ke etotal enthalpy
thermo 	5000
dump	3 all custom 5000 dump.lammpstrj id mol type xu yu zu
run		20000000
Neighbor list info ...
  update every 1 steps, delay 10 steps, check yes
  max neighbors/atom: 2000, page size: 100000
  master list distance cutoff = 1.42
  ghost atom cutoff = 1.42
  binsize = 0.71, bins = 226 226 226
  1 neighbor lists, perpetual/occasional/extra = 1 0 0
  (1) pair lj/cut, perpetual
      attributes: half, newton on
      pair build: half/bin/newton
      stencil: half/bin/3d/newton
      bin: standard
WARNING: Communication cutoff 1.4200000000000002 is shorter than a bond length based estimate of 1.8. This may lead to errors. (../comm.cpp:667)
Per MPI rank memory allocation (min/avg/max) = 54.71 | 54.71 | 54.71 Mbytes
Step Temp Press PotEng E_vdwl E_coul E_bond KinEng TotEng Enthalpy 
       0            1 1.9287109e-05            0            0            0            0      1.48125      1.48125      2.46875 
    5000   0.79637986 -0.00032744494   0.30914727            0            0   0.30914727    1.1796377    1.4887849   -15.276396 
   10000   0.45623179 -0.00065116956   0.79879266            0            0   0.79879266   0.67579333     1.474586   -31.865295 
   15000   0.73157002 -0.00027841201   0.40391489            0            0   0.40391489    1.0836381     1.487553   -12.767142 
   20000   0.73172727 -0.00019343194   0.38684618            0            0   0.38684618     1.083871    1.4707172   -8.4329984 
   25000   0.57009679 -0.00054033341   0.62644519            0            0   0.62644519   0.84445586    1.4709011    -26.19417 
   30000   0.76015728 -0.00026352368   0.36863221            0            0   0.36863221     1.125983    1.4946152   -11.997797 
   35000   0.78133177 -2.3569464e-05   0.34089002            0            0   0.34089002    1.1573477    1.4982377   0.29148114 
   40000   0.73920476 -0.00010328807   0.40242997            0            0   0.40242997     1.094947     1.497377   -3.7909723 
   45000   0.69225914 -0.00039790317   0.47114799            0            0   0.47114799    1.0254089    1.4965568   -18.876086 
   50000   0.81108751 -4.4005998e-05   0.30269448            0            0   0.30269448    1.2014234    1.5041179  -0.74898921 
   55000   0.81659728 0.00015371343   0.30843379            0            0   0.30843379    1.2095847    1.5180185    9.3881461 
   60000   0.80937566 -3.3589381e-05   0.31562743            0            0   0.31562743    1.1988877    1.5145151  -0.20526118 
   65000   0.79073517 -0.00018642564   0.33606739            0            0   0.33606739    1.1712765    1.5073439    -8.037649 
   70000   0.79602607 -4.6716983e-05   0.32003973            0            0   0.32003973    1.1791136    1.4991534  -0.89275619 
   75000    0.8489045 5.1344585e-05   0.23984744            0            0   0.23984744    1.2574398    1.4972872      4.12613 
   80000   0.84981575 2.647934e-05   0.26150125            0            0   0.26150125    1.2587896    1.5202908     2.876033 
   85000   0.76428434 -0.0001005388   0.38590575            0            0   0.38590575    1.1320962    1.5180019   -3.6295846 
   90000   0.82611724 -0.00011790409   0.32252236            0            0   0.32252236    1.2236862    1.5462085   -4.4904811 
   95000   0.80350923 -2.4638828e-06   0.35523285            0            0   0.35523285     1.190198    1.5454309    1.4192801 
  100000   0.81891522 0.00011967803    0.3256656            0            0    0.3256656    1.2130182    1.5386838    7.6661987 
  105000   0.78452838 -0.00012349392   0.35841685            0            0   0.35841685    1.1620827    1.5204995   -4.8023891 
  110000   0.80154018 -0.00013984808   0.32475366            0            0   0.32475366    1.1872814    1.5120351   -5.6481865 
  115000   0.77475604 9.334351e-05   0.36689854            0            0   0.36689854    1.1476074    1.5145059    6.2936936 
  120000   0.83331274 2.2305372e-05   0.26996459            0            0   0.26996459    1.2343445    1.5043091    2.6463442 
  125000   0.76866331 -0.00018861586   0.39209737            0            0   0.39209737    1.1385825    1.5306799    -8.126452 
  130000   0.73617182 0.00012464953   0.43743797            0            0   0.43743797    1.0904545    1.5278925    7.9099486 
  135000    0.8008856 3.4009879e-05   0.32073446            0            0   0.32073446    1.1863118    1.5070463     3.248352 
  140000   0.78224046 -0.00013808645   0.35102057            0            0   0.35102057    1.1586937    1.5097143   -5.5603122 
  145000   0.83600013 3.8978527e-05   0.26028501            0            0   0.26028501    1.2383252    1.4986102    3.4943108 
  150000    0.7492251 -3.3838215e-05   0.40360132            0            0   0.40360132    1.1097897     1.513391  -0.21912562 
  155000    0.8281135 6.5288033e-05   0.29251206            0            0   0.29251206    1.2266431    1.5191552    4.8619024 
  160000   0.77095515 -1.781329e-05   0.38041116            0            0   0.38041116    1.1419773    1.5223885   0.61034802 
  165000    0.7999845 -5.1975908e-05   0.32399744            0            0   0.32399744     1.184977    1.5089745    -1.152192 
  170000   0.74836733 9.1939526e-05   0.38737743            0            0   0.38737743    1.1085191    1.4958965    6.2032003 
  175000   0.73616977 -3.0731857e-05   0.39176833            0            0   0.39176833    1.0904515    1.4822198 -0.091251286 
  180000   0.74060045 -8.38532e-05   0.37101931            0            0   0.37101931    1.0970144    1.4680337   -2.8252501 
  185000   0.76557266 0.00011295494   0.35264121            0            0   0.35264121    1.1340045    1.4866457    7.2699388 
  190000   0.74898871 -4.1757244e-05   0.36619107            0            0   0.36619107    1.1094395    1.4756306   -0.6623403 
  195000   0.79503537 -0.00010856009   0.30962309            0            0   0.30962309    1.1776461    1.4872692   -4.0710073 
  200000   0.75856417 0.00017912169   0.35214313            0            0   0.35214313    1.1236232    1.4757663    10.646797 
  205000   0.74681118 -9.7713252e-05   0.36341166            0            0   0.36341166    1.1062141    1.4696257   -3.5332928 
  210000   0.72755461 -7.8475896e-05   0.38377782            0            0   0.38377782    1.0776903    1.4614681   -2.5564978 
  215000   0.76466853  0.000103241   0.33135469            0            0   0.33135469    1.1326653      1.46402    6.7499592 
  220000   0.73648943 -4.9778944e-05   0.33943815            0            0   0.33943815     1.090925    1.4303631   -1.1183188 
  225000   0.72522642 2.6293324e-06   0.36970367            0            0   0.36970367    1.0742416    1.4439453    1.5785671 
  230000   0.71211354 7.2400124e-05   0.38161934            0            0   0.38161934    1.0548182    1.4364375    5.1433238 
  235000   0.72215758 2.3733121e-05   0.36775933            0            0   0.36775933    1.0696959    1.4374552     2.652591 
  240000   0.72351242 -0.00010475358   0.35201946            0            0   0.35201946    1.0717028    1.4237222   -3.9396611 
  245000   0.69627909 2.6536142e-05   0.36859611            0            0   0.36859611    1.0313634    1.3999595      2.75861 
  250000   0.77011372 7.4468084e-05   0.25013902            0            0   0.25013902    1.1407309      1.39087    5.2036359 
  255000   0.76750129 -0.00015627547   0.26830674            0            0   0.26830674    1.1368613     1.405168   -6.5961361 
  260000   0.73176239 0.0001663152   0.34197891            0            0   0.34197891     1.083923    1.4259019    9.9412403 
  265000   0.75271864 -0.00013169356   0.33407554            0            0   0.33407554    1.1149645      1.44904   -5.2936701 
  270000   0.71553467 6.3273643e-05   0.37553108            0            0   0.37553108    1.0598857    1.4354168    4.6750274 
  275000   0.75885902 -9.2825192e-05   0.34062798            0            0   0.34062798    1.1240599    1.4646879   -3.2879619 
  280000   0.73004665 0.00020524911   0.38305126            0            0   0.38305126    1.0813816    1.4644329    11.973187 
  285000   0.77871933 -0.00017126919   0.33646379            0            0   0.33646379     1.153478    1.4899418   -7.2790409 
  290000    0.7806633 0.00013726879   0.34569948            0            0   0.34569948    1.1563575     1.502057    8.5302193 
  295000   0.72067607 -3.1482954e-05     0.413111            0            0     0.413111    1.0675014    1.4806124  -0.13131482 
  300000   0.72033252 -7.4533378e-05    0.4197169            0            0    0.4197169    1.0669925    1.4867095   -2.3293995 
  305000   0.78600473 0.00016659354   0.33564035            0            0   0.33564035    1.1642695    1.4999099    10.029499 
  310000   0.77914167 -7.687108e-05   0.37850299            0            0   0.37850299    1.1541036    1.5326066   -2.4031927 
  315000   0.78389835 -2.0989179e-05   0.35900521            0            0   0.35900521    1.1611494    1.5201546   0.44550868 
  320000   0.78014983 0.00010820751   0.35880275            0            0   0.35880275    1.1555969    1.5143997    7.0546242 
  325000   0.77278753 -0.00012038065   0.41624705            0            0   0.41624705    1.1446915    1.5609386   -4.6025508 
  330000    0.8058437 0.00011760511   0.39964932            0            0   0.39964932     1.193656    1.5933053    7.6146867 
  335000   0.81122928 -7.3540125e-05   0.39953643            0            0   0.39953643    1.2016334    1.6011698   -2.1640846 
  340000   0.79608508 -9.088999e-05   0.39861932            0            0   0.39861932     1.179201    1.5778204   -3.0757471 
  345000   0.83834998 6.1076587e-05   0.33620889            0            0   0.33620889    1.2418059    1.5780148     4.705136 
  350000   0.83146091 -7.563967e-05    0.3666738            0            0    0.3666738    1.2316015    1.5982753   -2.2744758 
  355000   0.80328198 6.8596935e-05   0.40600402            0            0   0.40600402    1.1898614    1.5958655    5.1080285 
  360000   0.81450728 -6.9405767e-06   0.38288665            0            0   0.38288665    1.2064889    1.5893756     1.234018 
  365000   0.78546266 -0.00016486878   0.40604299            0            0   0.40604299    1.1634666    1.5695096    -6.871772 
  370000   0.83974533 0.00016347174   0.31658451            0            0   0.31658451    1.2438728    1.5604573    9.9302104 
  375000   0.75272985 -0.00015410783   0.43911394            0            0   0.43911394    1.1149811     1.554095   -6.3362261 
  380000   0.76925146 9.3546044e-05   0.40988486            0            0   0.40988486    1.1394537    1.5493386    6.3388961 
  385000   0.79040063 -3.596531e-05   0.38878916 0.0002744864            0   0.38851468    1.1707809    1.5595701  -0.28185377 
  390000   0.73927337 4.3613864e-05   0.46862923 0.00017976682            0   0.46844946    1.0950487    1.5636779    3.7967077 
  395000   0.76362187 -0.00021620197   0.42579752 0.00025226568            0   0.42554526    1.1311149    1.5569124   -9.5126287 
  400000   0.76104199 0.00014853891   0.42984991 0.00027192008            0   0.42957799    1.1272935    1.5571434    9.1623354 
  405000   0.73667821 -0.00017708666   0.45505455 0.0004033643            0   0.45465118    1.0912046    1.5462591   -7.5205781 
  410000   0.79238457 0.00013113789   0.42049071 0.00028549459            0   0.42020522    1.1737196    1.5942104    8.3084705 
  415000   0.80752471 -0.00012518697   0.40728363 6.6068229e-05            0   0.40721756     1.196146    1.6034296   -4.8061434 
  420000   0.85569757 0.00010817824   0.35305964            0            0   0.35305964     1.267502    1.6205617    7.1592877 
  425000   0.77216053 -0.00012145592   0.44420388            0            0   0.44420388    1.1437628    1.5879667   -4.6305763 
  430000   0.80502055 -1.1355714e-05   0.39887286            0            0   0.39887286    1.1924367    1.5913096     1.009897 
  435000   0.84727197 7.0060164e-05    0.3443864            0            0    0.3443864    1.2550216     1.599408    5.1864884 
  440000   0.83665005 -8.5480748e-05   0.38337919            0            0   0.38337919    1.2392879    1.6226671   -2.7539472 
  445000   0.81255418 8.3181832e-05   0.40368152 2.0097409e-06            0   0.40367951    1.2035959    1.6072774    5.8661872 
  450000   0.81114276 -0.00017704745   0.42045338 0.00021324978            0   0.42024013    1.2015052    1.6219586    -7.442871 
  455000   0.85314218 9.6084449e-05   0.36245652 0.0010781705            0   0.36137835    1.2637169    1.6261734    6.5456972 
  460000   0.79555737 7.431697e-06   0.44647248 0.00099465774            0   0.44547782    1.1784193    1.6248918    2.0053947 
  465000    0.7848908 -3.7705043e-07   0.45367814 0.00070558817            0   0.45297255    1.1626195    1.6162976    1.5969927 
  470000    0.8333858 4.0817215e-05    0.3770766 0.00026432029            0   0.37681228    1.2344527    1.6115293    3.7013707 
  475000   0.79988195 3.5081204e-05   0.42660512 6.5791653e-05            0   0.42653932    1.1848251    1.6114303    3.4075879 
  480000   0.82056631 2.1817978e-05   0.38898083            0            0   0.38898083    1.2154638    1.6044447    2.7215252 
  485000   0.82359113 3.437492e-05   0.37331375 0.00029285151            0    0.3730209    1.2199444    1.5932581     3.353254 
  490000   0.82149671 -2.3256303e-05   0.34710541 0.0015611675            0   0.34554424     1.216842    1.5639474   0.37322472 
  495000   0.80372905 3.6367556e-05   0.36999693 0.0027669792            0   0.36722995    1.1905237    1.5605206    3.4225395 
  500000   0.80405295 8.634417e-06   0.40750848  0.003888765            0   0.40361972    1.1910034    1.5985119    2.0405941 
  505000   0.82743226 5.0565514e-05   0.37276656 0.0012772766            0   0.37148928     1.225634    1.5984006    4.1873549 
  510000   0.80128155 -7.385962e-05   0.38430677            0            0   0.38430677    1.1868983    1.5712051   -2.2104075 
  515000    0.7603669 2.1091841e-05   0.44401456            0            0   0.44401456    1.1262935     1.570308    2.6502103 
  520000   0.78796514 -0.0001615953   0.39770041            0            0   0.39770041    1.1671734    1.5648738   -6.7088054 
  525000   0.73963376 -6.9325078e-07   0.49707913 1.5868755e-05            0   0.49706326    1.0955825    1.5926616    1.5571672 
  530000   0.80550769 -7.4127859e-05    0.4084407  0.001242928            0   0.40719778    1.1931583     1.601599   -2.1937474 
  535000   0.76271293 -6.7523984e-05   0.50203186 0.0032744501            0   0.49875741    1.1297685    1.6318004   -1.8254276 
  540000   0.81203844 3.7784765e-06   0.43892856 0.0036420527            0   0.43528651    1.2028319    1.6417605    1.8352185 
  545000    0.8306004 1.3027189e-05   0.40965887 0.0034092809            0   0.40624959    1.2303268    1.6399857    2.3069778 
  550000   0.80329117 -2.0843692e-06   0.43525432 0.0049529821            0   0.43030134     1.189875    1.6251294    1.5184097 
  555000   0.78952989 -8.0197921e-05   0.47940689  0.001882876            0   0.47752402    1.1694911     1.648898   -2.4572355 
  560000    0.8233123 2.682279e-05   0.44903803 4.5089524e-05            0   0.44899294    1.2195313    1.6685694    3.0418962 
  565000   0.85974714 -3.8083691e-06   0.39955249  0.001545987            0    0.3980065    1.2735005    1.6730529    1.4780644 
  570000   0.81758699 -2.1108952e-06   0.47848777  0.015377596            0   0.46311017    1.2110507    1.6895385    1.5814607 
  575000   0.84880274 1.0592585e-05   0.42184849  0.015418398            0    0.4064301    1.2572891    1.6791376    2.2214779 
  580000   0.86148872 7.0276201e-05   0.37794673 0.0042417892            0   0.37370494    1.2760802    1.6540269    5.2521684 
  585000   0.88419531 -2.6223435e-05   0.34106315 0.00084207243            0   0.34022108    1.3097143    1.6507775   0.30813759 
  590000   0.85097213 -1.052218e-05   0.39172462            0            0   0.39172462    1.2605025    1.6522271    1.1134915 
  595000   0.80653117 -5.8329351e-05   0.45005856            0            0   0.45005856    1.1946743    1.6447329   -1.3417299 
  600000   0.83285819 4.6133454e-05   0.40708315            0            0   0.40708315    1.2336712    1.6407544    4.0027872 
  605000   0.85163311 4.1047167e-06   0.35428639 1.2642297e-05            0   0.35427375    1.2614815    1.6157679    1.8259294 
  610000   0.78877575 8.3623223e-06   0.43316568 0.0031459169            0   0.43001977    1.1683741    1.6015398    2.0296907 
  615000   0.74828473 -1.6932155e-05   0.49512822   0.01000997            0   0.48511825    1.1083968     1.603525   0.73659866 
  620000   0.85418265 7.2969264e-05   0.33947444  0.006426433            0   0.33304801     1.265258    1.6047325    5.3407588 
  625000   0.80669489 -4.2625925e-05   0.41669731 0.0011457057            0    0.4155516    1.1949168    1.6116141  -0.57083323 
  630000   0.73777586 2.8447248e-05   0.50186243            0            0   0.50186243    1.0928305    1.5946929     3.051192 
  635000   0.79725636 4.1783741e-06   0.41054275            0            0   0.41054275     1.180936    1.5914787    1.8054115 
  640000   0.78749596 -5.7977186e-06   0.41473071            0            0   0.41473071    1.1664784    1.5812091    1.2843659 
  645000   0.77153104 -2.7417434e-05   0.44555843            0            0   0.44555843    1.1428304    1.5883888   0.18461619 
  650000     0.794854 -8.1356672e-05   0.40618378            0            0   0.40618378    1.1773775    1.5835613   -2.5819004 
  655000   0.82511761 0.00010039093   0.36442382 5.7979473e-05            0   0.36436584    1.2222055    1.5866293    6.7266449 
  660000   0.77583467 -6.5183767e-05   0.43673438 0.00031193526            0   0.43642244    1.1492051    1.5859395   -1.7514694 
  665000   0.74395254 -5.244795e-05   0.47866681 0.00046369847            0   0.47820311    1.1019797    1.5806465   -1.1046886 
  670000   0.80880998 5.0985254e-05   0.41078943 0.0001416999            0   0.41064773    1.1980498    1.6088392    4.2192842 
  675000   0.73589473 -0.00012467385   0.52378369 4.6193436e-06            0   0.52377907    1.0900441    1.6138278   -4.7694736 
  680000   0.79663322 0.00010347297   0.43774954 0.00018604518            0   0.43756349     1.180013    1.6177625    6.9155788 
  685000   0.82254762 -3.2353852e-05   0.38708728 0.0008850931            0   0.38620219    1.2183987    1.6054859 -0.051031251 
  690000   0.76899347 0.00015827064   0.46900428 0.00059928223            0   0.46840499    1.1390716    1.6080758    9.7115326 
  695000   0.82976333 1.3303198e-05   0.38350247 0.00034183154            0   0.38316064    1.2290869    1.6125894    2.2937132 
  700000   0.85470831 -7.1588282e-05   0.34586969 9.9050695e-05            0   0.34577064    1.2660367    1.6119064   -2.0534137 
  705000   0.82339779 -0.00011294128   0.40599309            0            0   0.40599309     1.219658    1.6256511   -4.1569424 
  710000     0.795832 -3.322386e-05   0.48537868            0            0   0.48537868    1.1788261    1.6642048   -0.0368568 
  715000   0.87512478 0.00015244643   0.35223632 0.0038962161            0    0.3483401    1.2962786    1.6485149    9.4537722 
  720000   0.77066605 -3.9219305e-05   0.48190167  0.011964603            0   0.46993707    1.1415491    1.6234508  -0.38457769 
  725000   0.75295949 0.0001780112   0.46947604 0.0060222687            0   0.46345377    1.1153213    1.5847973    10.698971 
  730000   0.76498801 3.3910568e-05   0.48827656 7.2532739e-05            0   0.48820402    1.1331385     1.621415    3.3576361 
  735000   0.81877175 1.6230212e-05   0.40899465 0.00024881116            0   0.40874584    1.2128057    1.6218003    2.4527871 
  740000   0.76728609 -0.00010392458   0.47869569 0.00044035765            0   0.47825533    1.1365425    1.6152382   -3.7057001 
  745000   0.83056128 5.6931279e-05   0.40348495 0.00033187805            0   0.40315307    1.2302689    1.6337538    4.5486354 
  750000   0.87654715 1.9910533e-07   0.33452261 0.0052061383            0   0.32931647    1.2983855    1.6329081    1.6431023 
  755000   0.76686984 6.7296661e-06   0.52558592  0.017610101            0   0.50797582     1.135926    1.6615119    2.0060708 
  760000   0.83836435 -4.7864797e-05   0.42742993  0.018869157            0   0.40856078    1.2418272    1.6692571  -0.78142049 
  765000   0.85143222 7.2559801e-05   0.42298319  0.014120743            0   0.40886245     1.261184    1.6841672     5.399229 
  770000   0.84899182 -0.00018705704   0.42799026 0.0080601299            0   0.41993013    1.2575691    1.6855594   -7.8917611 
  775000   0.79450942 0.0001004253    0.4738841  0.021117814            0   0.45276629    1.1768671    1.6507512    6.7925266 
  780000   0.83829502 -3.6775054e-05   0.43612472  0.021720929            0   0.41440379    1.2417245    1.6778492  -0.20503356 
  785000   0.85712629 -7.063868e-05   0.43609549 0.0056876542            0   0.43040783    1.2696183    1.7057138   -1.9109866 
  790000   0.87459478 8.1684491e-05     0.412038 0.0040677651            0   0.40797023    1.2954935    1.7075315    5.8897774 
  795000   0.89716771 0.0001271864   0.38969179 0.0096253538            0   0.38006644    1.3289297    1.7186215    8.2305654 
  800000   0.82994452 -0.00013753757   0.48507782  0.020631589            0   0.46444623    1.2293553    1.7144331   -5.3274904 
  805000    0.8914675 -1.5491298e-05   0.38264186  0.010325041            0   0.37231681    1.3204862    1.7031281   0.90997362 
  810000   0.82804363 7.8144317e-05   0.46974638 0.00096489985            0   0.46878148    1.2265396     1.696286     5.697275 
  815000   0.90091335 -1.0036164e-05   0.37166468 0.00057875979            0   0.37108592    1.3344779    1.7061426     1.192291 
  820000   0.85337373 -0.0001117824   0.44827203 0.0019464463            0   0.44632559    1.2640598    1.7123319   -4.0109272 
  825000   0.84910093 -8.5346004e-07    0.4597906 0.0034330571            0   0.45635754    1.2577308    1.7175214    1.6738242 
  830000   0.91837812 2.305943e-05   0.37103906 0.0065966598            0    0.3644424    1.3603476    1.7313867    2.9120295 
  835000   0.83527657 -1.6701341e-05   0.52095296  0.028102216            0   0.49285074    1.2372534    1.7582064   0.90309774 
  840000   0.86615774 -0.00010145055   0.46773634  0.018029324            0   0.44970702    1.2829962    1.7507325   -3.4435355 
  845000   0.88426466 7.1020263e-05     0.464262  0.015173007            0     0.449089     1.309817     1.774079    5.4103165 
  850000   0.90783386   1.2161e-05   0.43656503  0.004022688            0   0.43254234    1.3447289    1.7812939    2.4039371 
  855000   0.87829189 4.6346492e-05   0.48056821 0.0011446116            0   0.47942359    1.3009699    1.7815381    4.1544785 
  860000   0.96021481 -1.0959864e-07   0.36613165 0.00021566598            0   0.36591598    1.4223182    1.7884498    1.7828384 
  865000   0.92515237 -1.8380164e-05   0.43797735 0.0013240827            0   0.43665327    1.3703819    1.8083593   0.86729493 
  870000   0.92359019 -1.1300477e-06   0.40501789 0.0088844205            0   0.39613347     1.368068    1.7730859    1.7152274 
  875000   0.87578152 8.779611e-05   0.46838417  0.013767686            0   0.45461649    1.2972514    1.7656355    6.2607964 
  880000   0.87432061 -5.8153991e-05   0.48745446 0.0074543102            0   0.48000015    1.2950874    1.7825419   -1.1949425 
  885000   0.84875262 0.00011600948   0.51975368 0.0010303284            0   0.51872335    1.2572148    1.7769685    7.7166538 
  890000    0.9120171 -0.00010205284    0.4032432 0.0083226471            0   0.39492055    1.3509253    1.7541685   -3.4709369 
  895000   0.85352412 -0.00015091329   0.50540324  0.010581548            0   0.49482169    1.2642826    1.7696858   -5.9570747 
  900000   0.88230864 0.00012844495   0.47878594  0.003905907            0   0.47488003    1.3069197    1.7857056     8.362087 
  905000    0.9029438 3.4726883e-05   0.42436343            0            0   0.42436343    1.3374855    1.7618489    3.5398654 
  910000   0.91472025 -9.8965958e-05   0.41778153 0.00040901272            0   0.41737252    1.3549294    1.7727109   -3.2943462 
  915000   0.86568441 0.00014060388   0.50643163 0.0084285912            0   0.49800304     1.282295    1.7887267    8.9876452 
  920000    0.9587281 -7.7285086e-05   0.39257088  0.011067739            0   0.38150315     1.420116    1.8126869   -2.1443095 
  925000   0.89764399 -8.8695283e-05   0.51416519   0.01136066            0   0.50280453    1.3296352    1.8438004   -2.6973982 
  930000   0.94516986 -8.2066374e-05   0.44067327  0.027469504            0   0.41320377    1.4000329    1.8407061   -2.3610922 
  935000   0.90608495 -9.4959172e-06   0.50936179  0.025399449            0   0.48396234    1.3421383    1.8515001    1.3653092 
  940000   0.92693921 -9.7895267e-05   0.50134089 0.0022043675            0   0.49913653    1.3730287    1.8743696   -3.1378681 
  945000   0.91149194 -6.2040791e-05   0.54125366  0.013640746            0   0.52761291    1.3501474    1.8914011   -1.2850874 
  950000   0.92564653 9.1881823e-05   0.55004983  0.020721789            0   0.52932804    1.3711139    1.9211637    6.6255131 
  955000   0.99156431 2.5414736e-05    0.4334628  0.003101176            0   0.43036163    1.4687546    1.9022174    3.2034519 
  960000   0.93225796 -7.4660745e-05   0.54061627  0.004038106            0   0.53657816    1.3809071    1.9215234   -1.9011068 
  965000   0.99558122 -0.00017184725   0.43425266   0.01177827            0   0.42247439    1.4747047    1.9089573   -6.8896218 
  970000   0.94055581 -4.5774142e-05     0.504373 0.0079907683            0   0.49638223    1.3931983    1.8975713  -0.44606479 
  975000   0.88900536 -2.9155142e-05   0.58406196 0.0037379233            0   0.58032403    1.3168392    1.9009011   0.40815787 
  980000    0.9350838 -0.00010846029   0.53660909 0.0077002747            0   0.52890881    1.3850929     1.921702   -3.6314649 
  985000   0.91045826 0.00016796602   0.57969088  0.019628164            0   0.56006272    1.3486163    1.9283072    10.528167 
  990000   0.98329696 -5.4354297e-05   0.46416128  0.022373607            0   0.44178768    1.4565086    1.9206699   -0.8622701 
  995000    0.9439187 -9.7652074e-05   0.52729638  0.021599712            0   0.50569667    1.3981796     1.925476   -3.0743102 
 1000000    0.8921299 -3.4167136e-05   0.57944927   0.01016305            0   0.56928623    1.3214674    1.9009167   0.15155931 
 1005000   0.94783067 -5.3591234e-05   0.49851067 0.0084880149            0   0.49002265    1.4039742    1.9024849  -0.84138634 
 1010000   0.97269469 2.2558569e-05   0.47380371  0.030590693            0   0.44321301     1.440804    1.9146077    3.0696064 
 1015000   0.96890235 -0.00011892505    0.4855629  0.024149489            0   0.46141341    1.4351866    1.9207495   -4.1682132 
 1020000   0.87805027 -5.5821416e-05   0.59889541 0.0037293655            0   0.59516604     1.300612    1.8995074  -0.95854914 
 1025000   0.93626687 -8.9972111e-05   0.51828009 0.0008818586            0   0.51739824    1.3868453    1.9051254   -2.7014467 
 1030000   0.82815128 1.7554162e-05   0.61617769 0.0021710581            0   0.61400663    1.2266991    1.8428768    2.7416499 
 1035000   0.84164358 -3.3748153e-05   0.60630456 0.0015659666            0   0.60473859    1.2466846    1.8529891   0.12508366 
 1040000    0.9490237 -5.4492404e-05   0.45782765 0.00077635218            0    0.4570513    1.4057413     1.863569   -0.9264421 
 1045000   0.82603393 -1.9908285e-05   0.61599765 0.0029112578            0   0.61308639    1.2235628    1.8395604   0.82025623 
 1050000    0.9262656 -8.5880966e-06   0.47410262 0.0024761098            0   0.47162651    1.3720309    1.8461335     1.406423 
 1055000   0.88623746 7.1483255e-05   0.51584083 0.0063165328            0   0.50952429    1.3127392    1.8285801    5.4885227 
 1060000   0.96577063 1.0138764e-05   0.40412628 0.0071634428            0   0.39696284    1.4305478     1.834674    2.3537787 
 1065000   0.89313891 7.6472492e-05   0.50826642  0.015356329            0   0.49291009     1.322962    1.8312284      5.74662 
 1070000   0.85389035 -3.0494203e-05   0.56709755  0.018589327            0   0.54850822    1.2648251    1.8319226   0.27061945 
 1075000   0.87191462 0.00010531101   0.51510442 0.0096558231            0   0.50544859    1.2915235     1.806628    7.1985519 
 1080000   0.89777601 8.0913863e-05   0.45761302  0.004039443            0   0.45357358    1.3298307    1.7874437    5.9302335 
 1085000   0.91429677 -9.5919755e-05   0.45302627  0.013323083            0   0.43970319    1.3543021    1.8073284   -3.1037631 
 1090000   0.88460322 1.4761229e-05   0.51631567 0.0081882431            0   0.50812742    1.3103185    1.8266342    2.5824091 
 1095000   0.88357367 -7.5871844e-05   0.53593172  0.003210794            0   0.53272093    1.3087935    1.8447252   -2.0399132 
 1100000   0.91206774 5.8404721e-05   0.48736034 0.0012106741            0   0.48614967    1.3510003    1.8383607    4.8286824 
 1105000   0.89564728 8.7955247e-05   0.50849916 0.00057197906            0   0.50792718    1.3266775    1.8351767    6.3384853 
 1110000    0.8408858 -6.9988994e-06   0.57930741 0.00076878486            0   0.57853862    1.2455621    1.8248695    1.4665259 
 1115000   0.89233185 -3.5582551e-05   0.51749082 0.0032412316            0   0.51424959    1.3217665    1.8392574   0.01743075 
 1120000   0.93521522 0.00011011921   0.45328463 0.0032364921            0   0.45004814    1.3852875    1.8385722     7.476676 
 1125000   0.91723347 -3.2920992e-05   0.50140186 0.0025846351            0   0.49881722    1.3586521    1.8600539   0.17449912 
 1130000    0.9303808 7.6533449e-05   0.47072378  0.010112607            0   0.46061118    1.3781266    1.8488503    5.7673629 
 1135000   0.86448092 6.7692448e-05   0.55844468   0.01619019            0   0.54225449    1.2805124     1.838957    5.3048104 
 1140000   0.86201645 -8.3629205e-05   0.55069315   0.00517222            0   0.54552093    1.2768619     1.827555   -2.4542603 
 1145000   0.91618766 -1.7413149e-05   0.47789894  0.014263363            0   0.46363558     1.357103    1.8350019   0.94344869 
 1150000   0.95501175 5.3885019e-05   0.43380008  0.022775627            0   0.41102445    1.4146112    1.8484112    4.6073242 
 1155000   0.93099554 -7.2191194e-05   0.45998181     0.016019            0   0.44396281    1.3790371     1.839019   -1.8571702 
 1160000   0.91226828 5.0672692e-05   0.52590454 0.0077859885            0   0.51811855    1.3512974    1.8772019    4.4716438 
 1165000   0.91660893 6.9569433e-05   0.49857198  0.010628306            0   0.48794367     1.357727     1.856299    5.4182539 
 1170000   0.95818129 -3.3408186e-05   0.43172385  0.010504254            0    0.4212196     1.419306    1.8510299   0.14053075 
 1175000   0.83731731 3.9368667e-05   0.60593511  0.013059228            0   0.59287588    1.2402763    1.8462114    3.8618871 
 1180000   0.93934029 1.7087423e-06   0.45634013 0.0086202473            0   0.44771988    1.3913978    1.8477379    1.9352255 
 1185000   0.89768601 4.6337923e-05    0.5208868 0.0058075375            0   0.51507926    1.3296974    1.8505842    4.2230859 
 1190000   0.94237423 -4.4585232e-05    0.4446453 0.0076691359            0   0.43697617    1.3958918    1.8405371  -0.44222676 
 1195000    0.9126463 1.4348516e-05   0.51447531 0.0069252856            0   0.50755003    1.3518573    1.8663326    2.6009767 
 1200000   0.95019765 -6.6893128e-05   0.41393804 0.0042180064            0   0.40972004    1.4074803    1.8214183   -1.6035098 
 1205000   0.87427233 1.8310407e-08   0.50067243 0.0027636008            0   0.49790883    1.2950159    1.7956883    1.7966258 
 1210000   0.88443406 0.0001012056   0.48948674 0.0028005481            0   0.48668619     1.310068    1.7995547    6.9812815 
 1215000   0.89654606  3.63662e-05   0.46811174 0.0076411378            0   0.46047061    1.3280089    1.7961206      3.65807 
 1220000   0.88466872 0.00010173263   0.45985959  0.016894074            0   0.44296552    1.3104155    1.7702751    6.9789859 
 1225000   0.85274715 -3.0965829e-05   0.47869208   0.00745934            0   0.47123274    1.2631317    1.7418238   0.15637335 
 1230000   0.87791885 2.4987914e-05   0.44754372 0.00086247333            0   0.44668125    1.3004173     1.747961    3.0273422 
 1235000   0.89430799 -0.00012592641   0.41312657 0.0023746394            0   0.41075193    1.3246937    1.7378203   -4.7096121 
 1240000   0.83892758 5.5459975e-05    0.4965815  0.014526368            0   0.48205514    1.2426615     1.739243    4.5787937 
 1245000   0.84304923 1.1179288e-05   0.49429003  0.016068088            0   0.47822194    1.2487667    1.7430567    2.3154362 
 1250000   0.86617147 -2.0124523e-05   0.48201243 0.0061837634            0   0.47582867    1.2830165    1.7650289   0.73465336 
 1255000   0.87409099 -8.0766233e-06   0.49214527 0.0024442833            0   0.48970098    1.2947473    1.7868926    1.3733694 
 1260000   0.75774561 0.00010708267   0.64295033  0.004833423            0   0.63811691    1.1224107     1.765361    7.2479938 
 1265000   0.90429924 4.5419798e-05   0.43763866 0.0055223199            0   0.43211634    1.3394933    1.7771319    4.1026256 
 1270000   0.89004842 -2.2449546e-05   0.46332142 0.0016773429            0   0.46164407    1.3183842    1.7817056    0.6322889 
 1275000   0.91651412 -2.2313441e-05   0.45268381 0.00017355495            0   0.45251025    1.3575865    1.8102703   0.66782214 
 1280000    0.8219008 0.00011395701   0.57239395 0.00087064977            0    0.5715233    1.2174406    1.7898345    7.6244332 
 1285000   0.87730842 -8.8443643e-05     0.477691 0.0021550781            0   0.47553592    1.2995131    1.7772041   -2.7511104 
 1290000   0.86278739 -6.9689275e-05   0.49384076 0.0087401572            0   0.48510061    1.2780038    1.7718446   -1.7962463 
 1295000    0.8690696 4.8828676e-05   0.47868007  0.017123182            0   0.46155688    1.2873093    1.7659894    4.2660176 
 1300000   0.85036185 7.1279889e-05   0.49437197  0.012888366            0    0.4814836    1.2595985    1.7539705    5.4035008 
 1305000   0.90161223 -3.3259902e-05   0.43576689 0.0058756204            0   0.42989127    1.3355131      1.77128  0.068373025 
 1310000   0.89492614 -3.2147419e-05   0.42044064 0.0020700318            0    0.4183706    1.3256093      1.74605   0.10010214 
 1315000   0.89170527 0.00011152367   0.41810608 0.0058323016            0   0.41227378    1.3208384    1.7389445    7.4489566 
 1320000    0.8068328 7.7273931e-05   0.54140962 0.0073233301            0   0.53408629    1.1951211    1.7365307     5.692956 
 1325000   0.85347157 -3.8313224e-05   0.47967501 0.0053188241            0   0.47435618    1.2642048    1.7438798  -0.21775732 
 1330000   0.93765739 -9.7433544e-05   0.37516738 0.0019082621            0   0.37325912     1.388905    1.7640724   -3.2245251 
 1335000   0.92003564 -4.1714169e-05    0.4104343 0.00055135442            0   0.40988294    1.3628028    1.7732371  -0.36252838 
 1340000   0.82413485 -7.1731035e-05   0.55564563 0.0029526806            0   0.55269295    1.2207497    1.7763954   -1.8962336 
 1345000   0.91604248 -0.00012415477   0.42710286 0.0064221615            0    0.4206807    1.3568879    1.7839908   -4.5727335 
 1350000   0.83703657 1.6397416e-05    0.5437234 0.0034722023            0   0.54025119    1.2398604    1.7835838    2.6231315 
 1355000   0.94057341 1.9037628e-05   0.39272591 0.0014284581            0   0.39129745    1.3932244    1.7859503    2.7606768 
 1360000   0.83285721 6.1619898e-05   0.53131449 0.0020041363            0   0.52931035    1.2336697    1.7649842     4.919923 
 1365000   0.89351543  4.09208e-06   0.45569327 0.0011499925            0   0.45454328    1.3235197     1.779213    1.9887275 
 1370000   0.95546519 1.5541659e-05   0.36080634 0.0034511649            0   0.35735517    1.4152828    1.7760891    2.5718221 
 1375000   0.82112379 -8.1183143e-05   0.53715956  0.029986102            0   0.50717346    1.2162896    1.7534492   -2.4031278 
 1380000   0.88783218 3.3414728e-05   0.44735059  0.018971991            0    0.4283786    1.3151014     1.762452    3.4732861 
 1385000   0.88182051 -2.9431214e-05   0.44676648  0.011040908            0   0.43572557    1.3061966    1.7529631   0.24608499 
 1390000   0.85961405 -8.6798602e-05   0.48410999   0.01113248            0   0.47297751    1.2733033    1.7574133   -2.6866751 
 1395000    0.9515489 2.0932219e-05   0.33908751 0.0015926768            0   0.33749484    1.4094818    1.7485693    2.8202989 
 1400000   0.82696876 1.7713065e-06   0.54241515 0.0020680928            0   0.54034705    1.2249475    1.7673626    1.8580535 
 1405000     0.843171 0.00011682594   0.49279657  0.002768867            0    0.4900277     1.248947    1.7417436    7.7232315 
 1410000   0.87568073 -0.0001064179   0.44794167 0.0095730344            0   0.43836864    1.2971021    1.7450437   -3.7035526 
 1415000   0.83161769 -0.00010262557   0.52426459  0.010665623            0   0.51359896    1.2318337    1.7560983    -3.498331 
 1420000   0.92137787 6.0852027e-05   0.39721853 0.0019343404            0   0.39528419     1.364791    1.7620095    4.8776333 
 1425000   0.81768844 7.6268859e-06   0.53882188 0.00067079633            0   0.53815109     1.211201    1.7500229    2.1405194 
 1430000   0.86458748 0.00019396409   0.49158887  0.010115686            0   0.48147318    1.2806702    1.7722591    11.703221 
 1435000    0.8549053 9.9682306e-05   0.51983481  0.022684476            0   0.49715033    1.2663285    1.7861633    6.8898973 
 1440000   0.87618599 -6.533206e-05   0.49052795  0.011926302            0   0.47860165    1.2978505    1.7883785    -1.556623 
 1445000   0.90671606 3.1247159e-05   0.42037513  0.020637046            0   0.39973809    1.3430732    1.7634483    3.3633028 
 1450000   0.90470799 -4.5238313e-05   0.43552458  0.023205408            0   0.41231917    1.3400987    1.7756233  -0.54057836 
 1455000   0.83911721 3.8907411e-06   0.51040202 0.0041653163            0   0.50623671    1.2429424    1.7533444    1.9525503 
 1460000   0.89697119 -4.0484764e-05    0.4116928 0.0069405141            0   0.40475228    1.3286386    1.7403314  -0.33248857 
 1465000   0.90245233 -6.7691887e-05   0.39570367  0.004124247            0   0.39157943    1.3367575    1.7324612   -1.7333634 
 1470000   0.90976772 4.4718022e-05   0.40797465 0.0031180433            0    0.4048566    1.3475934    1.7555681    4.0451308 
 1475000   0.86296477 3.2818298e-05   0.50089381  0.004562804            0   0.49633101    1.2782666    1.7791604    3.4594572 
 1480000   0.89588803 -0.00010210881   0.44972432 0.0076568653            0   0.44206745    1.3270341    1.7767585   -3.4512129 
 1485000   0.87871091 -6.9439512e-05   0.47346089  0.025680788            0    0.4477801    1.3015905    1.7750514   -1.7802516 
 1490000   0.93261289 6.5387183e-05   0.38653449 0.0046149636            0   0.38191953    1.3814328    1.7679673    5.1157911 
 1495000   0.85060295 1.8479017e-05   0.54432132 0.00019441554            0    0.5441269    1.2599556    1.8042769    2.7504026 
 1500000   0.90245273 5.4112448e-05   0.45474932 0.00011710043            0   0.45463222    1.3367581    1.7915074    4.5620647 
 1505000   0.94111035 -4.1857662e-05   0.40423099            0            0   0.40423099    1.3940197    1.7982507  -0.34486161 
 1510000   0.88395446 6.9037729e-05   0.50898552            0            0   0.50898552    1.3093575    1.8183431    5.3530748 
 1515000   0.94103682 2.8014744e-05   0.43217656 0.00037537589            0   0.43180119    1.3939108    1.8260874    3.2604422 
 1520000   0.89206822 -6.4979906e-05   0.51884795   0.00531484            0   0.51353311    1.3213761     1.840224   -1.4867472 
 1525000   0.97601693 7.514693e-05   0.40630795  0.029605379            0   0.37670257    1.4457251     1.852033    5.6995558 
 1530000   0.95522943 6.2909581e-05   0.43547261  0.025513004            0   0.40995961    1.4149336    1.8504062    5.0713767 
 1535000    1.0035354 4.7463122e-06   0.38465053 0.0030931774            0   0.38155735    1.4864868    1.8711373    2.1141485 
 1540000   0.94851915 5.184325e-05    0.4395873 0.00042686191            0   0.43916044     1.404994    1.8445813    4.4989557 
 1545000   0.93463652 1.098465e-07   0.43593184  0.001651558            0   0.43428029    1.3844303    1.8203622    1.8259863 
 1550000   0.96358064 -1.6404768e-05   0.36921256 0.0058926805            0   0.36331987    1.4273038    1.7965164   0.95659225 
 1555000   0.90006439 -1.7796353e-05   0.45333296  0.024395462            0    0.4289375    1.3332204    1.7865533   0.87538008 
 1560000   0.86069257 4.2487944e-06   0.50129645  0.013330584            0   0.48796587    1.2749009    1.7761973    1.9937356 
 1565000   0.92648866 -6.8585792e-05   0.39401191 0.0024334257            0   0.39157849    1.3723613    1.7663732   -1.7452193 
 1570000   0.90727222 0.00010651357   0.45951827  0.020524563            0    0.4389937     1.343897    1.8034152    7.2569098 
 1575000   0.89232552 2.1766117e-05     0.493549  0.013729187            0   0.47981981    1.3217572    1.8153062    2.9297314 
 1580000   0.90954763 3.2789046e-05    0.4746135  0.022525494            0   0.45208801    1.3472674    1.8218809    3.5006801 
 1585000   0.99243389 3.2034417e-05    0.3648168  0.018276908            0   0.34653989    1.4700427    1.8348595    3.4750216 
 1590000    0.8729526 -0.0002036028   0.56486966  0.014128403            0   0.55074125     1.293061    1.8579307   -8.5665328 
 1595000   0.91824071 -9.8281129e-06   0.49042542 0.0087579427            0   0.48166747     1.360144    1.8505695    1.3473701 
 1600000   0.94581771 -5.3603047e-05   0.44448353 0.0041087193            0   0.44037481    1.4009925     1.845476  -0.89899997 
 1605000   0.94159981 5.0816059e-06   0.43575378  0.023122625            0   0.41263115    1.3947447    1.8304985    2.0906767 
 1610000   0.95550173 5.3577784e-05   0.42179673  0.025417025            0    0.3963797    1.4153369    1.8371337    4.5803162 
 1615000   0.99564791 2.0879696e-05   0.37371184 0.0033091806            0   0.37040266    1.4748035    1.8485153    2.9175557 
 1620000   0.90547976 3.9819728e-05   0.50335697 0.00011978116            0   0.50323719    1.3412419    1.8445989    3.8833689 
 1625000   0.91851649 4.6721267e-05   0.46635089  0.007644201            0   0.45870669    1.3605526    1.8269034    4.2190323 
 1630000   0.91865056 6.5019263e-05   0.44421114  0.031929302            0   0.41228184    1.3607511    1.8049623    5.1339486 
 1635000   0.85706447 7.4443619e-05    0.4960903  0.048444978            0   0.44764532    1.2695267     1.765617    5.5771303 
 1640000   0.79175616 9.347038e-05   0.59500943   0.02650257            0   0.56850686    1.1727888    1.7677982    6.5534817 
 1645000   0.88973056 2.3333628e-06   0.47366025 0.00024979943            0   0.47341045    1.3179134    1.7915736    1.9110418 
 1650000   0.89425625 -3.0227938e-05   0.47583503 2.0498162e-05            0   0.47581453    1.3246171    1.8004521    0.2527817 
 1655000   0.92474976 5.9032006e-05   0.42912266 0.00049929778            0   0.42862336    1.3697856    1.7989082     4.821347 
 1660000    0.8534823 5.0622543e-05   0.51543182  0.003019348            0   0.51241247    1.2642207    1.7796525    4.3715267 
 1665000   0.99479355 7.0439607e-05   0.31261484 0.0054869052            0   0.30712794     1.473538    1.7861528    5.3926607 
 1670000   0.97267541 -2.2019475e-06   0.38424192 0.0062853279            0   0.37795659    1.4407755    1.8250174    1.7122777 
 1675000   0.86661685 -1.8563465e-07   0.56947442 0.0023584887            0   0.56711593    1.2836762    1.8531506    1.8436461 
 1680000   0.85113128 3.6150536e-05   0.57638141 0.00017638098            0   0.57620503    1.2607382    1.8371196    3.6880271 
 1685000   0.97034135 1.4776397e-05   0.39519119 0.0029633391            0   0.39222785    1.4373181    1.8325093    2.5890608 
 1690000   0.94299653 7.4163507e-06    0.4620173  0.013213434            0   0.44880387    1.3968136    1.8588309    2.2385481 
 1695000   0.91917887 -9.0230626e-05   0.48026595  0.019242395            0   0.46102356    1.3615337    1.8417997   -2.7780084 
 1700000   0.90096491 -2.1493148e-05   0.48503175   0.01250016            0   0.47253159    1.3345543     1.819586   0.71913684 
 1705000   0.93822501 9.3705933e-05   0.42999036 0.00087362368            0   0.42911673    1.3897458    1.8197361    6.6174799 
 1710000   0.92591519 -8.3908475e-05   0.47382925            0            0   0.47382925    1.3715119    1.8453411   -2.4507728 
 1715000   0.95621741 -9.2638104e-05   0.41489108 0.00076760116            0   0.41412348     1.416397    1.8312881   -2.9117828 
 1720000   0.89887392 0.00011973666    0.4951495  0.014604292            0   0.48054521     1.331457    1.8266065    7.9571234 
 1725000   0.87980428 3.4672869e-05   0.48128226  0.033505748            0   0.44777651    1.3032101    1.7844924    3.5597432 
 1730000   0.89474651 1.4297102e-05   0.46658058  0.044693426            0   0.42188715    1.3253433    1.7919238    2.5239355 
 1735000   0.90907075 5.3572382e-05   0.46973072  0.021922245            0   0.44780848     1.346561    1.8162918    4.5591978 
 1740000   0.89790038 4.8157382e-06   0.46183785 0.0088132224            0   0.45302462    1.3300149    1.7918528    2.0384186 
 1745000   0.91021453 5.1215482e-05   0.41996709 0.0025413278            0   0.41742576    1.3482553    1.7682224     4.390455 
 1750000   0.91400511 3.4978576e-06   0.41148558  0.026773288            0   0.38471229    1.3538701    1.7653556     1.944446 
 1755000   0.91889627 -0.00010013873   0.42476354  0.032096849            0   0.39266669    1.3611151    1.7858786   -3.3412244 
 1760000   0.91810277 -0.00013627636   0.45217808 0.0048213248            0   0.44735675    1.3599397    1.8121178   -5.1652319 
 1765000   0.91671353 -0.00010940592   0.45691319 0.00089677449            0   0.45601642    1.3578819    1.8147951   -3.7867879 
 1770000    0.9347335 -1.4302759e-05   0.43674693  0.027461723            0   0.40928521     1.384574    1.8213209    1.0890196 
 1775000   0.91763202 -2.664186e-05    0.4807414   0.03020899            0   0.45053241    1.3592424    1.8399838   0.47592057 
 1780000   0.93595054 1.5522644e-05   0.44436308  0.014188379            0    0.4301747    1.3863767    1.8307398    2.6254992 
 1785000   0.90130294 7.1652548e-05    0.4885403  0.012523699            0    0.4760166     1.335055    1.8235953    5.4922057 
 1790000   0.97809165 -1.4705185e-05   0.37877847 0.0093567038            0   0.36942176    1.4487983    1.8275767    1.0746712 
 1795000   0.96228181 -9.0704563e-05   0.37726502  0.008624433            0   0.36864058    1.4253799     1.802645   -2.8414287 
 1800000    0.8924056 -4.7957667e-06   0.47952505 0.0044970848            0   0.47502796    1.3218758    1.8014008    1.5558576 
 1805000   0.89408326 -6.4884519e-06   0.48676686 0.0038082234            0   0.48295864    1.3243608    1.8111277     1.478919 
 1810000   0.96361558 7.6029272e-05   0.42807713  0.020735222            0   0.40734191    1.4273556    1.8554327    5.7481314 
 1815000   0.94743538 1.4779023e-05   0.47726193  0.028987399            0   0.44827453    1.4033887    1.8806506    2.6373366 
 1820000   0.97607776 -4.1328181e-05   0.42920892  0.025898261            0   0.40331066    1.4458152    1.8750241  -0.24097875 
 1825000   0.99693837 -2.4039368e-05   0.39431796 0.0057511832            0   0.38856677     1.476715    1.8710329   0.64021726 
 1830000    1.0122213 -1.3683264e-05   0.36807418  0.014960913            0   0.35311326    1.4993528     1.867427    1.1668439 
 1835000   0.93696887 -8.7755485e-06   0.44153792  0.038961553            0   0.40257636    1.3878851    1.8294231     1.380115 
 1840000   0.86488622 -1.7442666e-05   0.54900595  0.046707091            0   0.50229886    1.2811127    1.8301187   0.93705415 
 1845000   0.87429061 1.289587e-05   0.52651501  0.041619541            0   0.48489547     1.295043     1.821558    2.4818265 
 1850000   0.91080035 7.0022237e-05   0.48895798  0.034119138            0   0.45483884     1.349123     1.838081    5.4232195 
 1855000   0.89901304 4.4727067e-05   0.49963024  0.029314797            0   0.47031544    1.3316631    1.8312933    4.1213191 
 1860000   0.95467358 1.4849567e-05   0.41697138  0.013884022            0   0.40308736    1.4141102    1.8310816    2.5913794 
 1865000   0.96960369 5.2434524e-06   0.39418338 0.0042214455            0   0.38996193    1.4362255    1.8304088    2.0988736 
 1870000   0.92148782 1.4659488e-05   0.47061214  0.003544445            0    0.4670677    1.3649538     1.835566    2.5861318 
 1875000   0.89026077 3.3195996e-05   0.51632236 0.0024168837            0   0.51390548    1.3186988    1.8350211    3.5346561 
 1880000   0.98789723 -5.4164293e-06   0.40532738 0.0013445346            0   0.40398285    1.4633228    1.8686502     1.591329 
 1885000    1.0008398 -9.2633439e-06   0.38804878 0.0041291027            0   0.38391967    1.4824939    1.8705427    1.3962595 
 1890000   0.91071336 -8.3079432e-05   0.54444355  0.023440072            0   0.52100348    1.3489942    1.8934377   -2.3602292 
 1895000   0.99862756 -2.4129633e-05    0.4178497  0.023428828            0   0.39442087    1.4792171    1.8970668   0.66162954 
 1900000    1.0093674 0.00011604228   0.37555934  0.013266111            0   0.36229323    1.4951255    1.8706848    7.8120493 
 1905000   0.96789162 6.6728445e-05    0.4532965 0.0046550655            0   0.44864143    1.4336895     1.886986    5.3034823 
 1910000   0.91743954 -5.7894841e-05   0.50872434 0.0059507403            0    0.5027736    1.3589573    1.8676817   -1.0965342 
 1915000   0.94246307 -0.00012962282   0.48098085  0.010137027            0   0.47084382    1.3960234    1.8770043   -4.7596842 
 1920000   0.96058994 -3.715213e-05   0.47713793  0.010138085            0   0.46699984    1.4228739    1.9000118 -0.0021772504 
 1925000   0.95546261 -5.8689191e-05    0.4565429 0.0056030903            0   0.45093981     1.415279    1.8718219   -1.1330647 
 1930000   0.98988387 -6.9384186e-05   0.40407249 0.0091069386            0   0.39496555    1.4662655     1.870338   -1.6821323 
 1935000   0.99485462 -7.6197406e-06   0.41844296  0.012160514            0   0.40628245    1.4736284    1.8920714    1.5019407 
 1940000   0.97464646 -9.0813069e-07   0.44165634  0.011842479            0   0.42981386    1.4436951    1.8853514    1.8388551 
 1945000   0.92240842 2.473439e-05   0.51642541  0.022100768            0   0.49432464    1.3663175    1.8827429    3.1491437 
 1950000   0.94051456 -4.9509844e-05   0.49891259  0.018338781            0   0.48057381    1.3931372    1.8920498  -0.64285423 
 1955000    1.0051221 -0.00011355688   0.44403677  0.017277038            0   0.42675973    1.4888371    1.9328738   -3.8812382 
 1960000   0.98263149 -2.4832495e-05   0.43977115  0.010560298            0   0.42921085    1.4555229     1.895294   0.62387028 
 1965000   0.96638513 1.5361982e-05   0.45997321  0.034848992            0   0.42512422     1.431458    1.8914312    2.6779646 
 1970000    1.0079128 -1.4417102e-05   0.40234917 0.0064784246            0   0.39587074    1.4929708    1.8953199    1.1571643 
 1975000    1.0142283 -5.3582056e-05   0.40585745 0.0033051664            0   0.40255229    1.5023256    1.9081831  -0.83521814 
 1980000    0.9362009 -8.7400409e-05   0.54971109  0.023911192            0    0.5257999    1.3867476    1.9364587   -2.5384422 
 1985000   0.93216311 3.7773851e-05   0.53715588  0.024220168            0   0.51293571    1.3807666    1.9179225    3.8519437 
 1990000     1.004569 0.00015612787   0.41876767 0.0092781549            0   0.40948951    1.4880178    1.9067855    9.9005325 
 1995000    0.9856283 -3.9922418e-05   0.42322838 0.0027639422            0   0.42046443    1.4599619    1.8831903  -0.16083752 
 2000000   0.95864848 -7.9942464e-05   0.46849195 0.0096065014            0   0.45888545    1.4199981      1.88849   -2.2045641 
 2005000   0.91556353 6.9122542e-05   0.53366458  0.036760069            0   0.49690451    1.3561785    1.8898431    5.4289172 
 2010000   0.95894934 6.9768436e-05    0.4455843  0.024432073            0   0.42115223    1.4204437     1.866028    5.4381719 
 2015000   0.98705416 -7.771409e-06   0.40109778 0.0029751504            0   0.39812263     1.462074    1.8631718    1.4652756 
 2020000   0.95170014 -5.2868285e-05   0.46602112  0.013500494            0   0.45252062    1.4097058    1.8757269  -0.83112924 
 2025000   0.96006929 -7.7335389e-05   0.43350997  0.035825066            0   0.39768491    1.4221026    1.8556126   -2.1039593 
 2030000   0.84755047 -8.7786027e-05   0.62332956  0.021867832            0   0.60146173    1.2554341    1.8787637   -2.6158809 
 2035000   0.96179072 -7.5482066e-05   0.45304527  0.023382653            0   0.42966262    1.4246525    1.8776978    -1.986984 
 2040000   0.90434323 -6.9642436e-05   0.53070576  0.031118651            0   0.49958711    1.3395584    1.8702642   -1.6954286 
 2045000   0.87867509 -5.8198304e-06   0.58283794  0.010649978            0   0.57218796    1.3015375    1.8843754    1.5864001 
 2050000   0.98878121 6.0998691e-05   0.40984406  0.002461391            0   0.40738267    1.4646322    1.8744762    4.9976092 
 2055000   0.93282034 -3.3831476e-05   0.49731556 0.0064232081            0   0.49089235    1.3817401    1.8790557   0.14688413 
 2060000   0.97056649 -6.5816083e-05   0.42898832  0.023247576            0   0.40574075    1.4376516    1.8666399   -1.5031435 
 2065000   0.93493998 -1.6322377e-05    0.4991988  0.022872285            0   0.47632652    1.3848798    1.8840786    1.0483729 
 2070000   0.96257023 -6.4902432e-05   0.47538442  0.014779462            0   0.46060495    1.4258072    1.9011916    -1.421813 
 2075000   0.95478592 -7.1903228e-05   0.48846388  0.012096107            0   0.47636778    1.4142767    1.9027405   -1.7787048 
 2080000   0.94787821 5.4501642e-05   0.51647797  0.032717488            0   0.48376049    1.4040446    1.9205226    4.7110066 
 2085000   0.97617616 0.00010302984   0.44771739  0.046532995            0    0.4011844    1.4459609    1.8936783    7.1688059 
 2090000   0.90810196 -9.4840878e-05   0.52794455  0.020680702            0   0.50726384     1.345126    1.8730706   -2.9827824 
 2095000   0.91340873 -7.1526879e-05   0.50984309  0.015323431            0   0.49451966    1.3529867    1.8628298   -1.7993465 
 2100000   0.95716075 -1.2001591e-05   0.43457384 0.0085511317            0   0.42602271    1.4177944    1.8523682    1.2378867 
 2105000   0.91976479 -3.4880679e-05   0.47022714 0.0043259074            0   0.46590123    1.3624016    1.8326287  0.046737987 
 2110000    0.9521246 8.0062918e-06   0.44356024 0.0059800207            0   0.43758022    1.4103346    1.8538948    2.2638169 
 2115000   0.95116998 2.5930253e-05   0.46955122 0.0092487933            0   0.46030243    1.4089205    1.8784718    3.2061007 
 2120000   0.91220485 7.5295897e-05   0.53189303  0.054052408            0   0.47784062    1.3512034    1.8830965    5.7382464 
 2125000   0.95515639 5.0719851e-05   0.46804298   0.01691727            0   0.45112571    1.4148254    1.8828684    4.4797248 
 2130000   0.92568825 4.4957066e-05   0.49223496  0.045983467            0    0.4462515    1.3711757    1.8634107    4.1652124 
 2135000   0.93010763 4.1093607e-05   0.48241578 0.0057145615            0   0.47670122    1.3777219    1.8601377    3.9641304 
 2140000   0.97248322 5.1659206e-05   0.43039579 0.0089703246            0   0.42142546    1.4404908    1.8708866    4.5158379 
 2145000   0.94780758 2.7470533e-05   0.46149361  0.028730779            0   0.43276283      1.40394    1.8654336    3.2719248 
 2150000   0.92659209 -1.5343786e-05   0.48050132  0.024120828            0   0.45638049    1.3725145    1.8530158     1.067414 
 2155000   0.97923109 -7.9497721e-05   0.41810207 0.0049022944            0   0.41319977     1.450486    1.8685881   -2.2016952 
 2160000   0.93244302 1.1083304e-05   0.47280087 0.0022833251            0   0.47051754    1.3811812    1.8539821    2.4214473 
 2165000    1.0119694 7.8909833e-07   0.35890129  0.019871169            0   0.33903012    1.4989797     1.857881    1.8982828 
 2170000   0.88944536 -5.3160263e-05   0.54903252  0.029182333            0   0.51985019    1.3174909    1.8665235  -0.85528199 
 2175000   0.90702705 -8.8883517e-05   0.54085178  0.030256342            0   0.51059544    1.3435338    1.8843856   -2.6664505 
 2180000   0.97715141 -9.7845413e-05    0.4393032 0.0089094276            0   0.43039377    1.4474055    1.8867087   -3.1229764 
 2185000   0.89145346 -7.6577623e-05   0.55726382 0.0024006574            0   0.55486316    1.3204654    1.8777293   -2.0430451 
 2190000   0.96682513 -6.7031857e-05   0.44490445 0.00097278299            0   0.44393167    1.4321097    1.8770142   -1.5550169 
 2195000   0.97027662 -4.2962587e-05   0.46762561  0.011021851            0   0.45660376    1.4372222    1.9048478  -0.29483661 
 2200000    0.9039736 -9.0966942e-05   0.56197301  0.041536257            0   0.52043675    1.3390109    1.9009839   -2.7565235 
 2205000    1.0169264 -9.2946836e-06   0.38010998  0.036426932            0   0.34368305    1.5063223    1.8864322    1.4105444 
 2210000   0.99146597 0.00011236408   0.40554628  0.026301389            0   0.37924489     1.468609    1.8741553    7.6271963 
 2215000   0.91847646 0.00012711955   0.49356447  0.012604436            0   0.48096003    1.3604933    1.8540577    8.3625785 
 2220000   0.93065497 0.00010229057   0.45703049  0.019510216            0   0.43752028    1.3785327    1.8355632    7.0728404 
 2225000   0.90589026 0.00010428672   0.47759214  0.027001762            0   0.45059038      1.34185    1.8194421    7.1589222 
 2230000   0.93003068 0.00013322783   0.45772387  0.040703072            0   0.41702079    1.3776079    1.8353318    8.6565967 
 2235000   0.90275504 3.2425504e-05   0.49333495   0.01588164            0   0.47745331    1.3372059    1.8305408    3.4907267 
 2240000   0.91281172 -3.7234038e-05   0.45501177   0.01546579            0   0.43954598    1.3521024    1.8071141 -0.099268613 
 2245000   0.92764039 -2.5889019e-05   0.43813253  0.030302352            0   0.40783017    1.3740673    1.8121999   0.48668208 
 2250000   0.95242387 -5.0605763e-05   0.41635995 0.0033283898            0   0.41303156    1.4107779    1.8271378  -0.76387726 
 2255000    0.9190967 -6.0937621e-05   0.44473265  0.015317136            0   0.42941551     1.361412    1.8061446   -1.3138616 
 2260000   0.97917854 -4.7860014e-05   0.34376124 0.0068434245            0   0.33691782    1.4504082    1.7941695  -0.65626327 
 2265000   0.90873119 9.8481064e-06   0.44023415 0.0073065224            0   0.43292762    1.3460581    1.7862922    2.2905153 
 2270000   0.88383991 -1.5056301e-05   0.49068533 0.0061249893            0   0.48456034    1.3091879    1.7998732    1.0289906 
 2275000   0.91346243 -0.00018470079   0.48645183 0.0025157908            0   0.48393604    1.3530662    1.8395181   -7.6171624 
 2280000   0.85060997 1.1195677e-05   0.54102622  0.016880792            0   0.52414543     1.259966    1.8009922    2.3742109 
 2285000   0.97044032 -5.91205e-06   0.39899485  0.023669282            0   0.37532557    1.4374647    1.8364596    1.5337626 
 2290000   0.94150071 -1.7735969e-05   0.45448179  0.017471019            0   0.43701077    1.3945979    1.8490797   0.94099808 
 2295000   0.92001799 0.00011734847   0.46719123  0.011138442            0   0.45605279    1.3627766    1.8299679    7.8382094 
 2300000   0.93473476 0.00012173686   0.42977887  0.010379277            0   0.41939959    1.3845759    1.8143547     8.047282 
 2305000   0.92658978 -9.5543466e-06   0.43640662   0.01659254            0   0.41981408    1.3725111    1.8089177    1.3197352 
 2310000   0.90164137 -7.9386418e-05   0.48169512  0.018581278            0   0.46311385    1.3355563    1.8172514   -2.2473332 
 2315000   0.94223479 -2.8802452e-05   0.43698393 0.0093709042            0   0.42761303    1.3956853    1.8326692   0.35798367 
 2320000   0.93241031 -4.9087156e-05   0.45201594  0.018177402            0   0.43383853    1.3811328    1.8331487  -0.68011371 
 2325000   0.93618914 2.4118509e-05   0.44064889  0.029451348            0   0.41119754    1.3867302     1.827379    3.0622467 
 2330000   0.99069264 8.5772297e-05    0.3692835  0.034279677            0   0.33500382    1.4674635     1.836747    6.2282886 
 2335000   0.89396791 4.8282548e-06   0.52761111  0.027734633            0   0.49987648      1.32419    1.8518011    2.0990077 
 2340000   0.91772795 4.0660171e-05   0.50112924  0.061537646            0    0.4395916    1.3593845    1.8605138    3.9423145 
 2345000   0.92365345 2.0677279e-05    0.4721039  0.042353328            0   0.42975057    1.3681617    1.8402656    2.8989423 
 2350000   0.94230997 -5.9537527e-05   0.47086732  0.018338281            0   0.45252904    1.3957966     1.866664   -1.1816574 
 2355000   0.97200585 -5.7036349e-05   0.44319545  0.019849547            0    0.4233459    1.4397837    1.8829791   -1.0372819 
 2360000   0.99615024 -0.00014451444   0.40920864   0.01555396            0   0.39365468    1.4755475    1.8847562   -5.5143833 
 2365000   0.92418575 -0.00018594685    0.5029542   0.00573772            0   0.49721648    1.3689501    1.8719043   -7.6485743 
 2370000   0.98348391 2.8215956e-06   0.42527823  0.023299847            0   0.40197839    1.4567855    1.8820638    2.0265295 
 2375000   0.94133085 0.00015933481   0.51698399  0.025616592            0   0.49136739    1.3943463    1.9113303    10.069272 
 2380000    1.0107925 0.00013450702   0.41374701   0.01779813            0   0.39594888    1.4972364    1.9109834    8.7977426 
 2385000    1.0208617 -2.1883477e-05   0.39770752  0.022726966            0   0.37498056    1.5121513    1.9098589   0.78942485 
 2390000    1.0132586 -6.1697783e-05   0.42789041   0.01311178            0   0.41477863    1.5008893    1.9287798   -1.2301467 
 2395000    1.0753661 1.3295894e-05   0.34573002 0.0037157994            0   0.34201422    1.5928861    1.9386161    2.6193659 
 2400000    1.0034921 -1.0566867e-05    0.4174927  0.025319723            0   0.39217298    1.4864226    1.9039153    1.3628917 
 2405000   0.97001683 -4.7827283e-05   0.47242699  0.049924703            0   0.42250229    1.4368374    1.9092644  -0.53949245 
 2410000   0.93547264 -4.4230351e-05   0.50936879  0.025862136            0   0.48350665    1.3856689    1.8950376  -0.36955634 
 2415000   0.99534267 2.9406598e-05   0.40374693  0.023917191            0   0.37982974    1.4743513    1.8780983    3.3837161 
 2420000    1.0212247 -1.0676287e-05   0.38869029  0.010178553            0   0.37851174    1.5126891    1.9013794    1.3547535 
 2425000     1.005066 -3.2391628e-05   0.38681781  0.020330845            0   0.36648696     1.488754    1.8755718   0.21712044 
 2430000   0.96140557 1.1773113e-05   0.46838023   0.03230473            0    0.4360755     1.424082    1.8924622    2.4952456 
 2435000    1.0200734 -6.4910042e-05   0.39138155  0.023163582            0   0.36821797    1.5109837    1.9023652   -1.4210289 
 2440000   0.94491789 -0.00015487381   0.51683996  0.061514869            0   0.45532509    1.3996596    1.9164996   -6.0130394 
 2445000   0.96745358 -0.00013198965   0.48848172  0.023207961            0   0.46527376    1.4330406    1.9215223   -4.8363479 
 2450000    1.0159747 -1.2952721e-05   0.39731983 0.0093603691            0   0.38795946    1.5049125    1.9022324    1.2390531 
 2455000   0.99987569 -3.6485957e-05   0.42217041  0.008180215            0   0.41399019    1.4810659    1.9032363  0.035155257 
 2460000    1.0383506 7.1993083e-05   0.35898625  0.038285544            0   0.32070071    1.5380569    1.8970431     5.583089 
 2465000    1.0160925 3.7776233e-05   0.37791868 0.0097987379            0   0.36811994     1.505087    1.8830057    3.8171488 
 2470000    0.9202516 2.5825036e-05    0.5113111  0.032594747            0   0.47871635    1.3631227    1.8744338    3.1966756 
 2475000   0.99863234 5.6626897e-05   0.39972723  0.043481206            0   0.35624603    1.4792242    1.8789514    4.7782485 
 2480000   0.97680811 6.8699269e-05    0.4219961  0.010727364            0   0.41126874     1.446897    1.8688931    5.3862957 
 2485000   0.99129542 8.8535443e-05   0.40429939  0.026815098            0    0.3774843    1.4683563    1.8726557    6.4056704 
 2490000   0.97281807 -1.0547947e-05   0.40672133  0.063434943            0   0.34328639    1.4409868    1.8477081    1.3076532 
 2495000   0.91389985 -8.3512521e-05   0.49383614  0.021346988            0   0.47248915    1.3537142    1.8475503   -2.4282908 
 2500000    0.9716478 6.5020293e-05   0.41389544  0.038108359            0   0.37578708    1.4392533    1.8531487    5.1821877 
 2505000    0.9815904 0.00015264343   0.41946675  0.043924174            0   0.37554257    1.4539808    1.8734475    9.6887913 
 2510000   0.98453865 -3.1423839e-05   0.41747891  0.040981338            0   0.37649758    1.4583479    1.8758268   0.26692622 
 2515000   0.95694667 -0.00014571272   0.45465969  0.023637164            0   0.43102253    1.4174773    1.8721369   -5.5883545 
 2520000   0.97661925 -3.9350763e-05   0.40442117  0.016628159            0   0.38779301    1.4466173    1.8510384  -0.16372063 
 2525000   0.99807169 3.563119e-05   0.36056435 0.0035202098            0   0.35704414    1.4783937     1.838958     3.663275 
 2530000   0.98887412 9.2586351e-05   0.37211041 0.0086844339            0   0.36342598    1.4647698    1.8368802    6.5773014 
 2535000   0.93747027 1.6288049e-05   0.47012346  0.013248143            0   0.45687532    1.3886278    1.8587513    2.6926994 
 2540000   0.89615425 -0.00012966293   0.54564746  0.066880999            0   0.47876646    1.3274285    1.8730759   -4.7656662 
 2545000    1.0351205 2.1169592e-05   0.37809416  0.010170106            0   0.36792405    1.5332722    1.9113664    2.9952495 
 2550000    1.0206032 7.9396293e-05   0.39770585 0.0048022101            0   0.39290364    1.5117685    1.9094744    5.9745646 
 2555000   0.97164962 6.7326315e-05   0.48412051  0.025744867            0   0.45837565     1.439256    1.9233765    5.3704839 
 2560000   0.98674902 2.5205304e-05   0.45982356 0.0085967909            0   0.45122676     1.461622    1.9214455    3.2119571 
 2565000    1.0624098 1.6287316e-05    0.3417959  0.016180643            0   0.32561526    1.5736946    1.9154905     2.749401 
 2570000      1.02892 6.8605928e-05   0.41133663  0.019123192            0   0.39221344    1.5240878    1.9354244    5.4480479 
 2575000    1.0096723 0.00010273077   0.39642069   0.02816803            0   0.36825266    1.4955771    1.8919977    7.1518132 
 2580000    1.0393078 1.4960128e-05   0.36028177  0.012757238            0   0.34752453    1.5394747    1.8997565    2.6657151 
 2585000    1.0194322 3.1798029e-06   0.38215589  0.022942227            0   0.35921366     1.510034    1.8921899    2.0549958 
 2590000   0.99198224 6.1459445e-05   0.43628867  0.017498732            0   0.41878993    1.4693737    1.9056624     5.052386 
 2595000   0.96061456 -9.7038084e-06   0.47601358  0.024758922            0   0.45125465    1.4229103    1.8989239    1.4020889 
 2600000    1.0155769 6.232465e-05   0.38203775 0.0098704687            0   0.37216728    1.5043232     1.886361    5.0773831 
 2605000    1.0609994 -4.3760822e-05   0.31816292  0.025139827            0   0.29302309    1.5716053    1.8897682  -0.35078583 
 2610000    1.0639817 -6.220461e-06   0.34295192  0.039429534            0   0.30352239    1.5760229    1.9189749    1.6004872 
 2615000    1.0430912 3.0040718e-05   0.39101105   0.02824182            0   0.36276923    1.5450789      1.93609    3.4741747 
 2620000    1.0295956 0.00011000767   0.41006746  0.021854978            0   0.38821248    1.5250884    1.9351559    7.5675487 
 2625000    1.0822542 -4.972947e-05     0.332257 0.0045251913            0    0.3277318     1.603089     1.935346  -0.61080285 
 2630000    1.0948908 9.910711e-06     0.339245  0.013702839            0   0.32554216     1.621807     1.961052    2.4684804 
 2635000    1.0385323 -2.7851128e-05   0.40163558  0.035730342            0   0.36590524    1.5383259    1.9399615   0.51398373 
 2640000    1.0037252 -7.4173325e-05   0.45375079  0.013666977            0   0.44008381    1.4867679    1.9405187   -1.8571555 
 2645000    1.1056014 2.7901421e-05   0.27507832 0.0067699957            0   0.26830832    1.6376721    1.9127504    3.3413032 
 2650000    1.0660458 5.403355e-05   0.36795503 0.0031899573            0   0.36476507    1.5790803    1.9470353    4.7135531 
 2655000    1.0816059 5.8907901e-05   0.35524821 0.0020245162            0   0.35322369    1.6021288     1.957377    4.9734615 
 2660000    1.1052593 -4.7112795e-05   0.29810734 0.0021746682            0   0.29593267    1.6371653    1.9352726  -0.47690248 
 2665000   0.98622182 -1.5197491e-05   0.45917694  0.053265436            0   0.40591151    1.4608411     1.920018    1.1419065 
 2670000   0.98501098 8.876697e-06   0.44409749  0.077220048            0   0.36687744    1.4590475     1.903145    2.3576319 
 2675000   0.98651333 -9.158026e-05   0.43367431  0.070409229            0   0.36326508    1.4612729    1.8949472   -2.7939621 
 2680000     1.036386 3.0383768e-05   0.35169041  0.030133427            0   0.32155698    1.5351467    1.8868371     3.442486 
 2685000   0.99586791 5.5958141e-05   0.42711622  0.011098696            0   0.41601752    1.4751293    1.9022456    4.7673024 
 2690000   0.99421866 -6.3678064e-06   0.40145735  0.023121053            0    0.3783363    1.4726864    1.8741437    1.5481121 
 2695000    1.0567082 -1.1305271e-05   0.29590149  0.016880002            0   0.27902149    1.5652489    1.8611504    1.2823206 
 2700000   0.97350819 4.5256362e-05   0.40535055  0.019963668            0   0.38538688     1.442009    1.8473596    4.1644853 
 2705000   0.98479594 6.0572895e-05   0.35375126  0.040879566            0    0.3128717     1.458729    1.8124803    4.9138125 
 2710000    1.0290015 -1.862338e-05   0.28642949  0.024108069            0   0.26232142    1.5242085     1.810638   0.85712096 
 2715000   0.98551914 -0.00011195544   0.34597203 0.0095563194            0   0.33641571    1.4598002    1.8057723   -3.9263463 
 2720000   0.97842464 -6.3235563e-05   0.35804282 0.0085501609            0   0.34949266    1.4492915    1.8073343   -1.4303265 
 2725000   0.98824547 4.1452723e-05   0.35638022  0.021212749            0   0.33516747    1.4638386    1.8202188    3.9425982 
 2730000    0.9989599 7.8772541e-06   0.35163946  0.029252125            0   0.32238733    1.4797094    1.8313488    2.2346642 
 2735000    1.0119035 -4.9655241e-05   0.33357586 0.0069660323            0   0.32660983    1.4988821     1.832458   -0.7098904 
 2740000   0.98832121 1.0260271e-05   0.33932474  0.013394859            0   0.32592988    1.4639508    1.8032755    2.3286014 
 2745000   0.98387075 3.4077417e-05   0.33141105  0.018731761            0   0.31267929    1.4573586    1.7887696    3.5335333 
 2750000   0.95018074 -1.0220674e-05   0.36701609  0.030398383            0   0.33661771    1.4074552    1.7744713    1.2511728 
 2755000    1.0036039 2.2847518e-05   0.27355031 0.0070448366            0   0.26650548    1.4865883    1.7601386    2.9299315 
 2760000   0.98217271 5.0881702e-05   0.30206806 0.0098571251            0   0.29221094    1.4548433    1.7569114    4.3620545 
 2765000   0.96464086 -2.4970784e-05   0.32722198  0.023676151            0   0.30354583    1.4288743    1.7560963   0.47759211 
 2770000   0.98396368 -2.9341775e-05    0.3185937  0.019839781            0   0.29875391    1.4574962    1.7760899   0.27379104 
 2775000    0.9864355 2.2751227e-05   0.30455339  0.049640822            0   0.25491257    1.4611576     1.765711    2.9305738 
 2780000   0.98735084 0.00010341931   0.32654207   0.03648298            0   0.29005909    1.4625134    1.7890555    7.0841241 
 2785000   0.96774494 -1.8918012e-05   0.32878657  0.013580897            0   0.31520568    1.4334722    1.7622588   0.79365653 
 2790000   0.93691379 -1.7585293e-05   0.37965971  0.014879493            0   0.36478022    1.3878036    1.7674633   0.86709625 
 2795000   0.95731691 5.515527e-05   0.33656524  0.013423679            0   0.32314157    1.4180257    1.7545909    4.5785408 
 2800000   0.95250008 4.6299099e-05   0.38850723  0.044266274            0   0.34424095    1.4108907     1.799398    4.1699118 
 2805000   0.99485765 -1.7316005e-05   0.34204814  0.013361803            0   0.32868633    1.4736329     1.815681   0.92910156 
 2810000   0.95167902 -5.8095088e-05   0.40678519  0.044888359            0   0.36189683    1.4096745    1.8164597   -1.1580088 
 2815000   0.91303481 -2.8087999e-05   0.48595665  0.045228165            0   0.44072849    1.3524328    1.8383895   0.40028395 
 2820000    1.0005374 6.5411493e-05   0.37381605  0.047993194            0   0.32582286     1.482046     1.855862    5.2049305 
 2825000     1.052588 3.7908213e-05   0.31683031   0.01754557            0   0.29928474     1.559146    1.8759763    3.8168768 
 2830000   0.99383308 1.3640225e-06    0.4205028 0.0077816847            0   0.41272111    1.4721153    1.8926181     1.962456 
 2835000    1.0332606 1.4739875e-05   0.33496443 0.0050720021            0   0.32989242    1.5305173    1.8654818    2.6201634 
 2840000    1.0805016 -3.6612729e-06   0.30385366  0.003312396            0   0.30054126     1.600493    1.9043467    1.7168895 
 2845000    1.0436144 -3.9983436e-05   0.36629372  0.013459266            0   0.35283445    1.5458539    1.9121476  -0.13500434 
 2850000   0.98184299 -1.1933936e-06   0.45900541  0.015069099            0   0.44393631    1.4543549    1.9133603    1.8522586 
 2855000   0.97705452 -4.0206568e-06    0.4877021  0.070095214            0   0.41760688     1.447262    1.9349641    1.7291065 
 2860000    1.0244078 4.7172812e-05   0.39420641   0.02255187            0   0.37165454     1.517404    1.9116104    4.3268584 
 2865000     1.057488 8.5449154e-05   0.34875176 0.0073676845            0   0.34138407    1.5664042    1.9151559    6.2901526 
 2870000    0.9986258 -3.6356983e-05   0.41089428  0.037079332            0   0.37381495    1.4792145    1.8901087  0.028631231 
 2875000    1.0198176 -1.3351788e-05    0.3932168  0.046573122            0   0.34664368    1.5106048    1.9038216    1.2202101 
 2880000    1.0610791 -7.6983435e-05    0.3313219  0.025059906            0   0.30626199    1.5717234    1.9030453   -2.0385065 
 2885000   0.97897549 -6.4204767e-05   0.42331831  0.059284734            0   0.36403357    1.4501074    1.8734258   -1.4138583 
 2890000    1.0338312 0.00014683242   0.33440907  0.023895853            0   0.31051322    1.5313625    1.8657716    9.3835917 
 2895000    1.0576758 4.0960285e-05   0.30892839 0.0064802121            0   0.30244817    1.5666823    1.8756107    3.9727773 
 2900000    1.0131561 -1.5287959e-06   0.36363276 0.0079256763            0   0.35570708    1.5007374    1.8643702    1.7860958 
 2905000   0.93927479 -4.192411e-05   0.45851064  0.040546654            0   0.41796399    1.3913008    1.8498114  -0.29670301 
 2910000   0.99708387 -3.0420387e-05   0.36344979  0.014502865            0   0.34894693    1.4769305    1.8403803   0.28285645 
 2915000   0.90852724 5.2373896e-05   0.48579999  0.011577218            0   0.47422277     1.345756     1.831556    4.5130994 
 2920000    1.0101127 6.8787501e-05   0.34784017  0.033573438            0   0.31426673    1.4962295    1.8440697    5.3659897 
 2925000     1.008597  -3.2887e-05    0.3980741  0.028660457            0   0.36941364    1.4939843    1.8920584   0.20824404 
 2930000   0.96685834 -2.5838113e-05   0.45830571  0.020929963            0   0.43737575    1.4321589    1.8904646   0.56755325 
 2935000   0.99214415 -4.0738068e-05   0.39061337   0.01294772            0   0.37766565    1.4696135    1.8602269  -0.22556221 
 2940000   0.93577695 -9.5948933e-05   0.44441244  0.066679358            0   0.37773308    1.3861196     1.830532   -3.0820533 
 2945000    1.0040425 1.1998346e-05   0.35289635  0.016610622            0   0.33628572    1.4872379    1.8401343    2.4544496 
 2950000   0.98399172 6.4712931e-05   0.35684935  0.029872211            0   0.32697714    1.4575377    1.8143871    5.1276892 
 2955000   0.98143313 -4.4495407e-06   0.35510489  0.033927867            0   0.32117702    1.4537478    1.8088527    1.5810362 
 2960000   0.95487005 -2.8560809e-05   0.43120088  0.074238366            0   0.35696252    1.4144013    1.8456021   0.38328874 
 2965000   0.89518938 9.6414331e-05   0.49005634  0.076161987            0   0.41389435    1.3259993    1.8160556    6.7524693 
 2970000    1.0170772 5.1825126e-05   0.32333588  0.015454721            0   0.30788116    1.5065455    1.8298814    4.4833279 
 2975000    0.9458748 -7.3005043e-05   0.40259941 0.0017378206            0   0.40086159     1.401077    1.8036765   -1.9341817 
 2980000   0.98038677 1.3789159e-05   0.35444244 0.0083536406            0    0.3460888    1.4521979    1.8066403    2.5126453 
 2985000    1.0096314 5.018878e-05    0.3069311 0.0081725681            0   0.29875853    1.4955166    1.8024477    4.3721132 
 2990000   0.98008959 4.2441613e-05   0.38030382 0.00077212687            0   0.37953169    1.4517577    1.8320615    4.0050721 
 2995000     1.019249 7.413889e-05   0.34044265 0.00024044429            0   0.34020221    1.5097626    1.8502053    5.6461164 
[...]
19285000    1.1174094 2.3606201e-05   0.50281294  0.018440011            0   0.48437292    1.6551627    2.1579757    3.3666132 
19290000    1.1468058 4.4434376e-05   0.48347774   0.02157826            0   0.46189948     1.698706    2.1821838    4.4572238 
19295000    1.0690835 -2.804948e-05   0.62804212  0.001944985            0   0.62609713      1.58358    2.2116221   0.77548875 
19300000     1.040341 -2.8966824e-05    0.6827561 0.0030075413            0   0.67974856    1.5410051    2.2237612   0.74065978 
19305000    1.0560311 5.5622335e-06   0.64014634   0.01734253            0   0.62280381    1.5642461    2.2043924    2.4891788 
19310000    1.1793896 -2.6352249e-05   0.47080708  0.018188416            0   0.45261867    1.7469708    2.2177779   0.86854273 
19315000    1.0759692 -0.00012132243   0.60311377  0.020692784            0   0.58242099    1.5937793    2.1968931   -4.0148151 
19320000    1.0354371 -5.499868e-05   0.67429458  0.029298588            0   0.64499599    1.5337413    2.2080359  -0.60789657 
19325000    1.1419664 2.894489e-06   0.57743563  0.043524122            0    0.5339115    1.6915377    2.2689734    2.4171712 
19330000    1.0874191 -4.5450951e-06   0.66264086  0.023055151            0   0.63958571    1.6107396    2.2733804    2.0406716 
19335000    1.1546296 6.3853091e-05   0.58271363  0.013186346            0   0.56952729    1.7102951    2.2930087     5.562287 
19340000      1.12203 6.7490365e-06   0.62214336 0.0068552644            0    0.6152881    1.6620069    2.2841503     2.629701 
19345000    1.0920734 -0.00012055402   0.63850531 0.0021174437            0   0.63638786    1.6176337     2.256139   -3.9162266 
19350000    1.1242844 -7.3507904e-05   0.52008889   0.01922976            0   0.50085913    1.6653462    2.1854351   -1.5781696 
19355000    1.0885474 3.3971251e-05   0.56605205  0.048221357            0   0.51783069    1.6124109     2.178463     3.917791 
19360000    1.0817384 -3.8869852e-06   0.59399797  0.047541452            0   0.54645652     1.602325     2.196323    1.9973094 
19365000    1.1364274 -1.8480609e-06   0.50606188  0.015834122            0   0.49022776    1.6833331     2.189395    2.0947743 
19370000    1.0839419 0.00014712092   0.56491059   0.01619098            0   0.54871961     1.605589    2.1704996    9.7030905 
19375000    1.0234771 0.00015676532   0.67316977  0.033427435            0   0.63974233    1.5160254    2.1891952     10.21558 
19380000    1.0280576 4.099526e-05   0.65505176  0.021971896            0   0.63307986    1.5228103    2.1778621    4.2768194 
19385000    1.1108834 5.2180627e-07   0.56102933  0.011231736            0   0.54979759     1.645496    2.2065253    2.2332418 
19390000    1.0826446 1.7503449e-06   0.60544847 0.0070660067            0   0.59838246    1.6036673    2.2091157    2.2987334 
19395000     1.067921 -5.5143051e-05   0.60777568 0.0049615639            0   0.60281412     1.581858    2.1896337  -0.63369049 
19400000    1.0375628 -3.258669e-05    0.6057691  0.011077966            0   0.59469114    1.5368899     2.142659   0.47422045 
19405000   0.96328447 4.394452e-05   0.71502751  0.068552523            0   0.64647499    1.4268651    2.1418926    4.3918521 
19410000    1.0440635 3.2180122e-05   0.63214189  0.041854484            0   0.59028741     1.546519    2.1786609    3.8262831 
19415000    1.0586174 0.00010532931    0.6361545  0.031860134            0   0.60429437     1.568077    2.2042315    7.5970919 
19420000    1.1169037 1.4281869e-05   0.55515282   0.03848007            0   0.51667275    1.6544136    2.2095664    2.9407981 
19425000    1.0785406 -7.6204384e-05   0.59921749   0.01805456            0   0.58116293    1.5975882    2.1968057   -1.7048588 
19430000    1.1355316 1.7172567e-05   0.55021637  0.021616036            0   0.52860034    1.6820061    2.2322225    3.1114579 
19435000    1.1384019 0.0001225386   0.52535361 0.0060954212            0   0.51925819    1.6862578    2.2116114    8.4855876 
19440000    1.1428462 -1.3283543e-05   0.50351857 0.0078595209            0   0.49565905    1.6928409    2.1963594     1.516242 
19445000    1.1177213 -7.9246578e-05    0.5535533  0.040527373            0   0.51302593    1.6556246    2.2091779   -1.8482469 
19450000    1.1180372 4.0284179e-05   0.52979255  0.021504809            0   0.50828774    1.6560926    2.1858852    4.2484351 
19455000    1.1296492 1.2446383e-05   0.52584371  0.020660397            0   0.50518331    1.6732929    2.1991366    2.8363914 
19460000    1.0525585 -2.3048304e-05   0.64097651 0.0097681557            0   0.63120835    1.5591023    2.2000789    1.0200057 
19465000    1.0796565 7.0879155e-05   0.61320953 0.0080457702            0   0.60516376    1.5992412    2.2124507    5.8414634 
19470000    1.1474177 0.00012858899   0.47489194  0.018741956            0   0.45614999    1.6996125    2.1745044    8.7582608 
19475000    1.1150325 4.599803e-05   0.55901462  0.020723044            0   0.53829158    1.6516419    2.2106565    4.5657557 
19480000    1.1297632 -0.00010289867   0.54000248 0.0066819486            0   0.53332053    1.6734618    2.2134642   -3.0549478 
19485000    1.0334916 -6.9149455e-05   0.68249913  0.016959324            0    0.6655398    1.5308595    2.2133586   -1.3270935 
19490000    1.1454683 0.00013555558   0.49649769  0.020494323            0   0.47600336    1.6967249    2.1932226    9.1336683 
19495000    1.0957878 0.00012172914   0.57870223  0.044112227            0      0.53459    1.6231358     2.201838    8.4343701 
19500000    1.0640793 1.8087909e-05   0.66109345  0.027247398            0   0.63384605    1.5761675     2.237261    3.1633619 
19505000    1.0644067 0.00014276221   0.65610749   0.04289757            0   0.61320992    1.5766524    2.2327599    9.5421848 
19510000    1.1441001 0.00013726414   0.57762529  0.049968002            0   0.52765729    1.6946982    2.2723235    9.3002475 
19515000    1.1228315 -1.952355e-05   0.60028666    0.0289788            0   0.57130786    1.6631941    2.2634808     1.263875 
19520000    1.1205126 -7.6708865e-05   0.57022257  0.039137438            0   0.53108513    1.6597593    2.2299819    -1.697512 
19525000    1.0924519 -7.4321797e-05   0.61209839  0.038274911            0   0.57382347    1.6181943    2.2302927   -1.5749833 
19530000    1.0936002 -7.3477656e-05   0.58979399  0.053533745            0   0.53626024    1.6198952    2.2096892   -1.5523668 
19535000    1.0726152 -4.9975861e-05   0.63085197  0.051700662            0    0.5791513    1.5888113    2.2196633  -0.33910083 
19540000    1.1179239 3.9899421e-06     0.578756  0.040949998            0     0.537806    1.6559248    2.2346808    2.4389658 
19545000    1.1692244 6.7903176e-06   0.51579098  0.016139076            0    0.4996519    1.7319137    2.2477047    2.5953689 
19550000    1.1355911 -4.5959142e-08   0.57718002 0.0082140809            0   0.56896594    1.6820944    2.2592744    2.2569213 
19555000    1.1455502 4.959979e-05   0.55478136  0.023570332            0   0.53121103    1.6968463    2.2516276    4.7911369 
19560000    1.1292953 0.00011898927   0.57229705  0.044911512            0   0.52738554    1.6727687    2.2450657    8.3373164 
19565000    1.1154222 0.00012378324   0.59436825 0.0078478972            0   0.58652035    1.6522191    2.2465874    8.5842894 
19570000    1.1265964 -7.3015727e-05   0.59739397  0.015209263            0   0.58218471    1.6687709    2.2661649   -1.4722403 
19575000    1.1893956 -7.5230442e-05   0.50863983  0.026653847            0   0.48198599    1.7617923    2.2704321   -1.5813665 
19580000    1.1607562 9.2628405e-05   0.51753286  0.011050481            0   0.50648238    1.7193701     2.236903    6.9794773 
19585000    1.2072912 3.038221e-05   0.46215903 0.0098673122            0   0.45229172    1.7883001    2.2504591    3.8060283 
19590000    1.1004207 7.0062192e-07   0.64132977  0.013799193            0   0.62753057    1.6299981    2.2713279    2.3071997 
19595000    1.1090556 -4.755059e-05   0.65280646 0.0081343383            0   0.64467212    1.6427886    2.2955951  -0.13899514 
19600000    1.0764727 -0.00019272103   0.64597682  0.013071207            0   0.63290562    1.5945253    2.2405021   -7.6268149 
19605000    1.0822371 -2.8237546e-05   0.61108287  0.011192549            0   0.59989032    1.6030636    2.2141465   0.76838419 
19610000    1.1193733 0.00012604826   0.59175809    0.0368649            0   0.55489319    1.6580716    2.2498297    8.7035008 
19615000    1.1493802 1.052262e-06   0.55003393  0.018764782            0   0.53126914    1.7025195    2.2525534    2.3064292 
19620000    1.1507538 9.2610344e-05   0.51477876 0.0024814496            0   0.51229731    1.7045541    2.2193328    6.9609825 
19625000     1.174233 0.00021278647    0.4747416 0.0030081004            0    0.4717335    1.7393326    2.2140742    13.108742 
19630000    1.1242895 -1.2931004e-05   0.51902822 0.0065111176            0    0.5125171    1.6653538     2.184382    1.5223146 
19635000    1.1170697 -0.00025814827   0.51531626  0.012322233            0   0.50299403    1.6546595    2.1699758   -11.047216 
19640000    1.0845723 -6.8470702e-05   0.53400827 0.0086494556            0   0.52535882    1.6065227    2.1405309    -1.365169 
19645000    1.1314886 0.00010344048   0.44359286 0.0031642428            0   0.44042862    1.6760174    2.1196103    7.4157631 
19650000    1.0597758 5.2394362e-06   0.54814186 0.0029376358            0   0.54520422    1.5697928    2.1179347    2.3861938 
19655000    1.0609732 -1.9753543e-05   0.54127445  0.027836404            0   0.51343805    1.5715666     2.112841    1.1014596 
19660000    1.0178469 3.8398521e-05   0.62745616  0.047486131            0   0.57997002    1.5076858    2.1351419    4.1011462 
19665000    1.0546565 -0.00011716889   0.55711576  0.016827455            0   0.54028831      1.56221    2.1193258   -3.8797216 
19670000    1.1324939 -9.4336412e-05   0.43923232 0.0020905779            0   0.43714174    1.6775066    2.1167389   -2.7132854 
19675000    1.0771072 6.0296341e-05   0.49453113 0.0062801187            0   0.48825101    1.5954651    2.0899962    5.1771688 
19680000    1.0129862 6.0437183e-06   0.60221088 0.0094712741            0    0.5927396    1.5004858    2.1026967    2.4121351 
19685000   0.94990746 -2.5913214e-05   0.65156234 0.0084479832            0   0.64311436    1.4070504    2.0586128   0.73185622 
19690000    1.0540099 0.00011146493   0.49187093  0.015595923            0   0.47627501    1.5612521     2.053123    7.7601277 
19695000    1.1197544 1.6430833e-05   0.40914248  0.013960728            0   0.39518176    1.6586361    2.0677786    2.9090373 
19700000    1.0798614 -6.2928336e-05    0.4523371  0.025675208            0   0.42666189    1.5995447    2.0518818    -1.170049 
19705000     1.013307 -7.9051642e-05   0.52197674  0.049102364            0   0.47287438     1.500961    2.0229377   -2.0245063 
19710000    1.0565879 -5.460101e-05   0.44179026  0.026861623            0   0.41492864    1.5650708    2.0068611  -0.78871062 
19715000   0.99002657 0.00012081868    0.5312119  0.047388129            0   0.48382377    1.4664769    1.9976888    8.1836051 
19720000   0.99952175 -1.1058106e-05   0.49223197 0.0079107819            0   0.48432119    1.4805416    1.9727736    1.4065985 
19725000   0.99593543 -9.477838e-05    0.4839523  0.030476186            0   0.45347611    1.4752294    1.9591816   -2.8934714 
19730000   0.97555487 4.1121943e-05    0.5257674   0.10200784            0   0.42375956    1.4450407    1.9708081    4.0762515 
19735000   0.91249252 0.00010450813   0.64447164  0.040631718            0   0.60383992    1.3516296    1.9961012    7.3469173 
19740000    1.0389306 7.7381544e-05   0.44556305  0.011541713            0   0.43402134     1.538916     1.984479     5.946414 
19745000   0.93889451 -6.9142149e-05   0.58826812  0.033253154            0   0.55501497    1.3907375    1.9790056   -1.5610724 
19750000    1.0349546 6.3690722e-05   0.45876208  0.023421078            0     0.435341    1.5330265    1.9917886    5.2527535 
19755000    0.9462685 6.1334108e-05   0.57092738 0.0083569623            0   0.56257041    1.4016602    1.9725876    5.1128939 
19760000   0.96369977 -0.00012321563   0.53824011  0.012508574            0   0.52573154    1.4274803    1.9657204   -4.3429199 
19765000    1.0131274 5.4523673e-06   0.47266075  0.039132124            0   0.43352862     1.500695    1.9733558     2.252517 
19770000     1.032657 0.00022585704   0.47411921  0.021340261            0   0.45277895    1.5296232    2.0037424    13.567623 
19775000    0.9895966 -5.4147262e-05   0.51626508  0.014860562            0   0.50140452      1.46584     1.982105  -0.79023477 
19780000   0.96739805 2.6116281e-07   0.55899857 0.0099018867            0   0.54909669    1.4329584    1.9919569    2.0053285 
19785000    1.0118944 9.0636317e-05   0.50666438  0.035331494            0   0.47133288    1.4988685    2.0055329    6.6461123 
19790000    1.0214045 -4.4814991e-05     0.485328 0.0038821757            0   0.48144583    1.5129554    1.9982834  -0.29624411 
19795000    1.0759761 7.4016297e-06    0.4226322 0.00094029614            0   0.42169191    1.5937896    2.0164218    2.3953853 
19800000    1.0368273 7.3289449e-05   0.45952691  0.014904651            0   0.44462226    1.5358004    1.9953274    5.7477471 
19805000   0.99590665 3.4131567e-06   0.52083206  0.012645568            0   0.50818649    1.4751867    1.9960188    2.1707724 
19810000    1.0142012 -5.0488717e-05   0.48508761 0.0075567594            0   0.47753085    1.5022856    1.9873732  -0.59764909 
19815000    1.0031836 -3.7028231e-06   0.48127219  0.033154788            0    0.4481174    1.4859658     1.967238    1.7776534 
19820000   0.97161902 -2.7254614e-05    0.5209264   0.04591248            0   0.47501392    1.4392107    1.9601371   0.56470083 
19825000   0.93571086 -1.0507536e-05   0.57383965  0.009705122            0   0.56413453    1.3860217    1.9598614    1.4218755 
19830000    1.0274887 6.7476135e-05   0.46316845  0.016228812            0   0.44693964    1.5219677    1.9851361    5.4399142 
19835000   0.90973356 -5.8680081e-05   0.64890777  0.089030335            0   0.55987743    1.3475428    1.9964506   -1.0079696 
19840000   0.98310349 -6.5187284e-05   0.53801604  0.051067315            0   0.48694872     1.456222    1.9942381   -1.3433509 
19845000   0.97168376 3.011681e-05   0.53282205  0.013397833            0   0.51942422    1.4393066    1.9721286    3.5141093 
19850000    1.0682764 -5.7297811e-05   0.40446287 0.0060981968            0   0.39836468    1.5823844    1.9868473   -0.9468006 
19855000   0.92780356 -2.5227108e-06   0.61174926   0.04690938            0   0.56483988     1.374309    1.9860583    1.8568955 
19860000     1.079749 2.9319354e-05   0.40062847  0.027583818            0   0.37304465    1.5993782    2.0000066    3.5011576 
19865000   0.95660576 -4.3100242e-05   0.54020262  0.053107947            0   0.48709468    1.4169723    1.9571749  -0.24955747 
19870000   0.99190102 -1.0523696e-05   0.49077072  0.006358508            0   0.48441221    1.4692534    1.9600241    1.4212109 
19875000   0.98759912 -5.6563783e-05   0.51772462 0.0026992002            0   0.51502542    1.4628812    1.9806058  -0.91545987 
19880000   0.96165449 -2.8119896e-05   0.53583727 0.0034069097            0   0.53243036    1.4244507     1.960288   0.52054932 
19885000   0.99686093 4.2599557e-05   0.49252223  0.024289907            0   0.46823233    1.4766003    1.9691225    4.1502198 
19890000    1.0192539 -3.8850537e-05   0.48447124  0.025080416            0   0.45939083    1.5097698     1.994241 0.0050935493 
19895000    1.0233664 4.9961869e-05   0.44716323 0.0056211392            0   0.44154209    1.5158615    1.9630247    4.5210724 
19900000   0.95668591 9.0988579e-05   0.53696058    0.0166749            0   0.52028568     1.417091    1.9540516    6.6126668 
19905000   0.92825539 -6.8115991e-05   0.56383571  0.040677663            0   0.52315805    1.3749783     1.938814   -1.5487247 
19910000   0.91301065 -0.00012806821   0.58903833  0.061157159            0   0.52788117     1.352397    1.9414354   -4.6156568 
19915000   0.98078219 -6.6043626e-05   0.50792642  0.026759685            0   0.48116673    1.4527836      1.96071   -1.4207236 
19920000    1.0067699 5.3703887e-05   0.49503671  0.041173657            0   0.45386305     1.491278    1.9863147    4.7359537 
19925000    1.0475195 0.00011914729   0.46953118 0.0093209601            0   0.46021022    1.5516383    2.0211694    8.1215109 
19930000    1.0091049 7.7363079e-05   0.55416562  0.020230666            0   0.53393495    1.4947366    2.0489022    6.0098918 
19935000    1.0210088 -6.1997131e-05   0.52144929  0.015756509            0   0.50569278    1.5123693    2.0338186   -1.1404345 
19940000     1.063925 -3.9940771e-05   0.45262164  0.011834561            0   0.44078708    1.5759389    2.0285605 -0.016406991 
19945000    1.0176019 -1.7588152e-05   0.50613907  0.018825992            0   0.48731308    1.5073229    2.0134619    1.1129486 
19950000    1.0782317 2.3198629e-05   0.43840179  0.037218526            0   0.40118326    1.5971306    2.0355324    3.2233022 
19955000    1.0252755 -1.24841e-05   0.53927019  0.023713471            0   0.51555671    1.5186893    2.0579595    1.4187736 
19960000    1.0562903 -2.7213891e-05   0.47109267  0.014572434            0   0.45652024      1.56463    2.0357227   0.64237144 
19965000   0.97978612 4.6871774e-05   0.60812212 0.0073645317            0   0.60075759    1.4513082    2.0594303    4.4592652 
19970000    1.0886859 -2.9815199e-05   0.44086571  0.021254887            0   0.41961083     1.612616    2.0534817   0.52694346 
19975000    1.0294244 -1.8274819e-05   0.53509036  0.017473103            0   0.51761725     1.524835    2.0599253    1.1242546 
19980000   0.99093354 -4.7669657e-05   0.57843215  0.021710428            0   0.55672172    1.4678203    2.0462524  -0.39443397 
19985000    1.0869544 2.1574412e-05   0.41063497  0.015812815            0   0.39482216    1.6100512    2.0206861     3.125296 
19990000    0.9842213 -4.6282865e-05   0.55587511  0.029677335            0   0.52619778    1.4578778    2.0137529  -0.35592979 
19995000   0.97944181 7.4974108e-05    0.5650674  0.046219577            0   0.51884782    1.4507982    2.0158656    5.8545399 
20000000    1.0532711 2.860484e-06   0.45891406  0.043369092            0   0.41554497    1.5601578    2.0190719    2.1655287 
Loop time of 202.399 on 1 procs for 20000000 steps with 80 atoms

Performance: 85375.917 tau/day, 98814.718 timesteps/s
99.1% CPU use with 1 MPI tasks x no OpenMP threads

MPI task timing breakdown:
Section |  min time  |  avg time  |  max time  |%varavg| %total
---------------------------------------------------------------
Pair    | 9.8617     | 9.8617     | 9.8617     |   0.0 |  4.87
Bond    | 28.195     | 28.195     | 28.195     |   0.0 | 13.93
Neigh   | 21.432     | 21.432     | 21.432     |   0.0 | 10.59
Comm    | 53.204     | 53.204     | 53.204     |   0.0 | 26.29
Output  | 0.50703    | 0.50703    | 0.50703    |   0.0 |  0.25
Modify  | 82.216     | 82.216     | 82.216     |   0.0 | 40.62
Other   |            | 6.983      |            |       |  3.45

Nlocal:        80.0000 ave          80 max          80 min
Histogram: 1 0 0 0 0 0 0 0 0 0
Nghost:        0.00000 ave           0 max           0 min
Histogram: 1 0 0 0 0 0 0 0 0 0
Neighs:        26.0000 ave          26 max          26 min
Histogram: 1 0 0 0 0 0 0 0 0 0

Total # of neighbors = 26
Ave neighs/atom = 0.325
Ave special neighs/atom = 5.8500000
Neighbor list builds = 3907
Dangerous builds = 0
write_restart restart.equil
System init for write_restart ...
WARNING: Communication cutoff 1.4200000000000002 is shorter than a bond length based estimate of 1.8. This may lead to errors. (../comm.cpp:667)
#--------------End of Input file ------------------
Total wall time: 0:03:22
