LAMMPS (29 Oct 2020)
###################### polyelectrolyte complexation ######################
clear

#Initialization
#------------------------------------
units				lj
dimension			3
atom_style			full
boundary			p p p

#Atom Definition
#-------------------------------------
read_data			data.complexation
Reading data file ...
  orthogonal box = (-80.000000 -80.000000 -80.000000) to (80.000000 80.000000 80.000000)
  1 by 1 by 1 MPI processor grid
  reading atoms ...
  40 atoms
  scanning bonds ...
  1 = max bonds/atom
  reading bonds ...
  39 bonds
Finding 1-2 1-3 1-4 neighbors ...
  special bond factors lj:    0.0      0.0      0.0     
  special bond factors coul:  0.0      0.0      0.0     
     2 = max # of 1-2 neighbors
     2 = max # of 1-3 neighbors
     4 = max # of 1-4 neighbors
     6 = max # of special neighbors
  special bonds CPU = 0.000 seconds
  read_data CPU = 0.002 seconds

#Force definition
#----------------------------------------------
#Bond definition
bond_style			harmonic
bond_coeff			1 5000 1
#Pair definition
special_bonds	lj 0 1 1
Finding 1-2 1-3 1-4 neighbors ...
  special bond factors lj:    0.0      1.0      1.0     
  special bond factors coul:  0.0      0.0      0.0     
     2 = max # of 1-2 neighbors
     2 = max # of 1-3 neighbors
     4 = max # of 1-4 neighbors
     6 = max # of special neighbors
  special bonds CPU = 0.000 seconds
pair_style		 lj/cut 1.12
pair_modify 		 shift yes
pair_coeff	1 1 1 1 1.12

#Timestep etc
#--------------------------------------------
timestep		1e-05
run_style		verlet
velocity		all	create	1	14

#Fix
#---------------------------------------
group polymers type 1
40 atoms in group polymers
fix 1 all nve
fix 2 all langevin 1	1	10	14
fix 3 polymers recenter INIT INIT INIT units box

#Dump
#------------------------------------------------
compute  1 all gyration
variable  myRg2 equal c_1
variable  i equal step
fix  mythermofile all print 5000 "$i ${myRg2}" file radius_of_gyration.dat screen no

thermo_style		 custom step temp press pe evdwl ecoul ebond ke etotal enthalpy
thermo 	5000
dump	3 all custom 5000 dump.lammpstrj id mol type xu yu zu
run		20000000
Neighbor list info ...
  update every 1 steps, delay 10 steps, check yes
  max neighbors/atom: 2000, page size: 100000
  master list distance cutoff = 1.42
  ghost atom cutoff = 1.42
  binsize = 0.71, bins = 226 226 226
  1 neighbor lists, perpetual/occasional/extra = 1 0 0
  (1) pair lj/cut, perpetual
      attributes: half, newton on
      pair build: half/bin/newton
      stencil: half/bin/3d/newton
      bin: standard
WARNING: Communication cutoff 1.4200000000000002 is shorter than a bond length based estimate of 1.8. This may lead to errors. (../comm.cpp:667)
Per MPI rank memory allocation (min/avg/max) = 54.71 | 54.71 | 54.71 Mbytes
Step Temp Press PotEng E_vdwl E_coul E_bond KinEng TotEng Enthalpy 
       0            1 9.5214844e-06            0            0            0            0       1.4625       1.4625       2.4375 
    5000   0.79430677 -0.00015427687   0.32280664            0            0   0.32280664    1.1616736    1.4844803   -14.313471 
   10000    0.4807955 -0.0003132391   0.77383764            0            0   0.77383764   0.70316341    1.4770011   -30.598682 
   15000   0.86572889 -6.8660938e-05   0.20025111            0            0   0.20025111    1.2661285    1.4663796   -5.5645004 
   20000   0.76838497 3.8100484e-05   0.34810057            0            0   0.34810057     1.123763    1.4718636    5.3733531 
   25000   0.81331643 -9.8419992e-05   0.29944404            0            0   0.29944404    1.1894753    1.4889193   -8.5892878 
   30000   0.71898835 -0.00016129419   0.43858749            0            0   0.43858749    1.0515205    1.4901079   -15.026417 
   35000   0.83268776 0.00010279556   0.29660935            0            0   0.29660935    1.2178058    1.5144152    12.040681 
   40000   0.79133041 0.00014317234   0.36328957            0            0   0.36328957    1.1573207    1.5206103    16.181458 
   45000   0.79537552 -0.00013987207   0.40007689            0            0   0.40007689    1.1632367    1.5633136   -12.759587 
   50000    0.8270886 -0.00011342741   0.33667965            0            0   0.33667965    1.2096171    1.5462967    -10.06867 
   55000   0.80163369 0.00014627719   0.40285999            0            0   0.40285999    1.1723893    1.5752493    16.554034 
   60000   0.84641035 2.8770695e-05   0.34021256            0            0   0.34021256    1.2378751    1.5780877    4.5242069 
   65000   0.84565239 -4.685194e-05   0.30515452            0            0   0.30515452    1.2367666    1.5419211   -3.2557175 
   70000   0.73434962 -4.0337492e-05   0.49346612            0            0   0.49346612    1.0739863    1.5674524   -2.5631068 
   75000   0.90570265 6.7867199e-05   0.25693356            0            0   0.25693356    1.3245901    1.5815237    8.5311249 
   80000   0.85826778 -1.9052183e-05   0.34026982            0            0   0.34026982    1.2552166    1.5954864  -0.35545713 
   85000   0.79957873 5.3142392e-05   0.45433085            0            0   0.45433085    1.1693839    1.6237147    7.0654957 
   90000   0.85821131 -0.00013514023   0.32589379            0            0   0.32589379     1.255134    1.5810278   -12.257331 
   95000   0.75718768 9.444061e-05   0.46208097            0            0   0.46208097     1.107387     1.569468    11.240186 
  100000   0.77992169 3.9666115e-05    0.4384149            0            0    0.4384149    1.1406355    1.5790504    5.6408606 
  105000   0.71534453 -9.4464344e-05   0.49213995            0            0   0.49213995    1.0461914    1.5383313   -8.1348175 
  110000   0.82579006 -2.9376695e-05   0.34155763            0            0   0.34155763     1.207718    1.5492756   -1.4588979 
  115000   0.71890833 0.00018360624   0.49127923            0            0   0.49127923    1.0514034    1.5426827    20.343962 
  120000   0.78570841 -0.00013161175   0.40871268            0            0   0.40871268    1.1490986    1.5578112   -11.919232 
  125000   0.82683323 3.652453e-07   0.34096291            0            0   0.34096291    1.2092436    1.5502065    1.5876076 
  130000   0.75181689 9.5658568e-05   0.43737768            0            0   0.43737768    1.0995322    1.5369099    11.332347 
  135000   0.78529476 -3.4712306e-05   0.38769869            0            0   0.38769869    1.1484936    1.5361923   -2.0183479 
  140000   0.81273905 -0.00014830577    0.3822471            0            0    0.3822471    1.1886309     1.570878   -13.615633 
  145000   0.82361044 6.3291362e-05   0.34817383            0            0   0.34817383    1.2045303    1.5527041    8.0337395 
  150000   0.79418359 2.1223514e-05   0.36942588            0            0   0.36942588    1.1614935    1.5309194    3.7042072 
  155000   0.86414128 -4.7093899e-05   0.22655206            0            0   0.22655206    1.2638066    1.4903587   -3.3320566 
  160000   0.72951288 4.4471273e-05   0.44801356            0            0   0.44801356    1.0669126    1.5149261    6.0687845 
  165000   0.75659671 7.4834897e-06   0.37340702            0            0   0.37340702    1.1065227    1.4799297     2.246239 
  170000   0.82332952 -8.788702e-06    0.2821017            0            0    0.2821017    1.2041194    1.4862211   0.58625804 
  175000   0.78554414 -4.5214727e-05   0.36856004            0            0   0.36856004    1.1488583    1.5174183   -3.1125697 
  180000   0.84059119 3.7990001e-05   0.33236826            0            0   0.33236826    1.2293646    1.5617329     5.451909 
  185000   0.91111284 -8.4272447e-06   0.22169515            0            0   0.22169515    1.3325025    1.5541977   0.69124782 
  190000   0.79829826 3.9611718e-05   0.39688488            0            0   0.39688488    1.1675112    1.5643961    5.6206361 
  195000   0.80517606 -3.1982782e-05   0.40311979            0            0   0.40311979      1.17757    1.5806898   -1.6943471 
  200000   0.80388155 6.1775366e-05   0.43431831            0            0   0.43431831    1.1756768    1.6099951    7.9357925 
  205000   0.85221703 -4.4926704e-05   0.35513804            0            0   0.35513804    1.2463674    1.6015054    -2.998989 
  210000   0.83186029 4.0051446e-05   0.38645027            0            0   0.38645027    1.2165957    1.6030459     5.704314 
  215000   0.90136531 -9.1985785e-06   0.30409917            0            0   0.30409917    1.3182468    1.6223459   0.68041151 
  220000   0.95874939 -6.4853842e-05   0.23561113            0            0   0.23561113     1.402171    1.6377821   -5.0032513 
  225000   0.95350749 8.623079e-05   0.26421087 0.00045609564            0   0.26375477    1.3945047    1.6587156    10.488748 
  230000   0.89670825 -4.517952e-05   0.38108571 0.0039251222            0   0.37716059    1.3114358    1.6925215   -2.9338613 
  235000   0.80266156 9.3702803e-05   0.52135843 0.0052059908            0   0.51615243    1.1738925     1.695251    11.290418 
  240000   0.76038578 -2.4509508e-05   0.55611345 0.0015958704            0   0.55451758    1.1120642    1.6681777  -0.84159597 
  245000   0.82521857 2.1158853e-05    0.4422035            0            0    0.4422035    1.2068822    1.6490857    3.8157522 
  250000   0.89926497 -2.4796205e-05   0.30408513            0            0   0.30408513     1.315175    1.6192601  -0.91987122 
  255000   0.90412713 5.4314044e-05   0.31775999 0.00013311355            0   0.31762687    1.3222859    1.6400459     7.201804 
  260000   0.91822048 4.8031618e-05   0.32859061 0.00027636975            0   0.32831424    1.3428974    1.6714881    6.5899258 
  265000   0.92400779 -5.889409e-05   0.32634875 0.00057795457            0   0.32577079    1.3513614    1.6777101   -4.3530446 
  270000   0.88015907 9.077966e-05   0.39681917 0.00070215695            0   0.39611701    1.2872326    1.6840518    10.979889 
  275000   0.89552945 -8.0482079e-05   0.33743211 0.00035227269            0   0.33707984    1.3097118    1.6471439   -6.5942209 
  280000   0.92528825 9.546288e-05    0.3102658            0            0    0.3102658    1.3532341    1.6634999    11.438899 
  285000   0.91433221 -4.4355392e-05   0.30572863            0            0   0.30572863    1.3372109    1.6429395   -2.8990526 
  290000   0.92858035 3.3345061e-05   0.29013321 0.0001377364            0   0.28999547    1.3580488     1.648182    5.0627162 
  295000    0.9655156 -1.0609722e-05   0.24110224 0.00012969547            0   0.24097255    1.4120666    1.6531688   0.56673327 
  300000   0.94159083 1.6812179e-06   0.26766498 0.00012620064            0   0.26753878    1.3770766    1.6447416    1.8168983 
  305000   0.96772525 9.8049043e-06   0.23353016 0.0012683004            0   0.23226186    1.4152982    1.6488283    2.6528505 
  310000   0.88005986 -4.7846055e-05   0.35258819   0.01099683            0   0.34159136    1.2870876    1.6396757   -3.2597603 
  315000    0.8267505 9.2054207e-05   0.41764732  0.013707145            0   0.40394018    1.2091226    1.6267699    11.053121 
  320000   0.82081297 -2.0740267e-05   0.43684655  0.021329525            0   0.41551702     1.200439    1.6372855  -0.48651785 
  325000     0.874958 5.7176196e-05   0.36638119 0.0015570346            0   0.36482416    1.2796261    1.6460073    7.5008497 
  330000   0.90040074 -6.3472583e-05   0.33165756 0.00052890611            0   0.33112865    1.3168361    1.6484936   -4.8510989 
  335000   0.91200358 8.4369488e-06   0.34198591 0.0013851079            0    0.3406008    1.3338052    1.6757911    2.5397347 
  340000   0.95918831 -4.2038601e-05   0.27314477 0.0053548521            0   0.26778992    1.4028129    1.6759577   -2.6287951 
  345000   0.89951798 6.4076145e-05   0.35797061 0.0052699806            0   0.35270063     1.315545    1.6735157    8.2349129 
  350000   0.79247485 3.4454388e-05   0.48120984 0.0016648787            0   0.47954496    1.1589945    1.6402043    5.1683337 
  355000   0.78853855 -1.7267311e-06   0.47455031 0.00014854358            0   0.47440177    1.1532376    1.6277879    1.4509707 
  360000   0.77593501 -4.3863336e-05   0.51463619            0            0   0.51463619     1.134805    1.6494411   -2.8421644 
  365000   0.81841904 -8.5539093e-05   0.42358037            0            0   0.42358037    1.1969378    1.6205182   -7.1386849 
  370000   0.78178556 1.9394909e-05   0.45745036            0            0   0.45745036    1.1433614    1.6008117    3.5868504 
  375000   0.78267106 -8.8668711e-05   0.45081825            0            0   0.45081825    1.1446564    1.5954747   -7.4842013 
  380000    0.7779902 8.8566039e-05   0.48104149            0            0   0.48104149    1.1378107    1.6188522    10.688015 
  385000   0.82664607 -6.4998908e-05   0.45957852            0            0   0.45957852    1.2089699    1.6685484   -4.9873398 
  390000   0.86648467 4.5395376e-05   0.40818331            0            0   0.40818331    1.2672338    1.6754171    6.3239037 
  395000   0.90489574 -7.5008694e-05   0.34749336            0            0   0.34749336      1.32341    1.6709034   -6.0099869 
  400000   0.86676078 -1.3658716e-05   0.39545675            0            0   0.39545675    1.2676376    1.6630944   0.26444188 
  405000   0.86826727 -2.1476853e-05   0.36152963            0            0   0.36152963    1.2698409    1.6313705  -0.56785926 
  410000   0.84518578 4.1522246e-05   0.37340774            0            0   0.37340774    1.2360842    1.6094919    5.8613699 
  415000   0.83325179 -6.1760714e-06   0.38463287            0            0   0.38463287    1.2186307    1.6032636   0.97083389 
  420000    0.8057699 4.9979175e-05    0.4289155            0            0    0.4289155    1.1784385     1.607354    6.7252215 
  425000   0.78826454 -9.430674e-05   0.40603154            0            0   0.40603154    1.1528369    1.5588684   -8.0981418 
  430000   0.79186219 1.8986242e-05   0.41482734            0            0   0.41482734    1.1580985    1.5729258     3.517117 
  435000   0.85416092 -8.115342e-05   0.35948639            0            0   0.35948639    1.2492103    1.6086967   -6.7014134 
  440000   0.83761859 6.9493092e-05   0.36718681            0            0   0.36718681    1.2250172     1.592204    8.7082966 
  445000   0.73972338 2.9755812e-05   0.49433447            0            0   0.49433447    1.0818454    1.5761799     4.623175 
  450000   0.78538063 4.3752783e-05   0.43424222            0            0   0.43424222    1.1486192    1.5828614    6.0631463 
  455000   0.88649582 -3.9354115e-05   0.32038539 0.00080603418            0   0.31957936    1.2965001    1.6168855   -2.4129758 
  460000   0.92260312 6.3119053e-05   0.28744162  0.010800769            0   0.27664085    1.3493071    1.6367487    8.1001397 
  465000   0.87513128 -1.8850103e-05   0.37613178  0.023992499            0   0.35213929    1.2798795    1.6560113  -0.27423926 
  470000   0.84357515 7.0484199e-06   0.42255273  0.024414111            0   0.39813862    1.2337287    1.6562814    2.3780396 
  475000   0.77256952 -1.1580225e-05   0.47324639  0.014282136            0   0.45896426    1.1298829    1.6031293   0.41731426 
  480000   0.85911137 -0.00011388894    0.3204416  0.011162574            0   0.30927903    1.2564504     1.576892   -10.085336 
  485000   0.85056685 5.4079346e-05   0.34184697  0.001347242            0   0.34049973     1.243954     1.585801     7.123526 
  490000   0.80069553 -4.2150087e-05   0.41824213 0.00063333549            0    0.4176088    1.1710172    1.5892593   -2.7269096 
  495000   0.72850048 5.6648726e-05   0.50973247 0.0025777476            0   0.50715473     1.065432    1.5751644     7.375994 
  500000   0.69451969 -1.5533409e-05   0.53116779 0.0039092649            0   0.52725853     1.015735    1.5469028  -0.04371829 
  505000    0.8283564 4.6830269e-05    0.3366206 0.00066633715            0   0.33595426    1.2114712    1.5480918    6.3435113 
  510000   0.73427919 -5.5912624e-05   0.41458243 3.9304182e-06            0    0.4145785    1.0738833    1.4884657   -4.2369869 
  515000   0.70840663 1.5955501e-05   0.48351206            0            0   0.48351206    1.0360447    1.5195568    3.1534001 
  520000   0.79029714 1.9476207e-05   0.37328431            0            0   0.37328431    1.1558096    1.5290939    3.5234574 
  525000   0.80528478 -6.1879062e-05    0.3356638            0            0    0.3356638     1.177729    1.5133928   -4.8230231 
  530000    0.7706705 2.4535582e-05   0.41213123 0.00010520381            0   0.41202603    1.1271056    1.5392368    4.0516804 
  535000   0.73767629 -2.336213e-05   0.46197223 0.00064177365            0   0.46133045    1.0788516    1.5408238  -0.85145831 
  540000   0.83126656 7.375528e-05     0.289627 0.0038413752            0   0.28578563    1.2157273    1.5053543    9.0578951 
  545000   0.84013671 3.1461076e-05   0.28116243  0.020508403            0   0.26065402    1.2286999    1.5098624    4.7314765 
  550000   0.74138127 3.8123634e-05   0.45272965  0.024717532            0   0.42801212    1.0842701    1.5369998    5.4408599 
  555000   0.77092488 2.3377044e-05   0.42482912  0.013062553            0   0.41176656    1.1274776    1.5523067     3.946116 
  560000    0.8092723 -0.00010767635   0.38446821 4.7504136e-05            0    0.3844207    1.1835607    1.5680289   -9.4580289 
  565000   0.85710009 -9.5729606e-06   0.33599438            0            0   0.33599438    1.2535089    1.5895033    0.6092321 
  570000   0.71493915 5.0527176e-05     0.534233            0            0     0.534233    1.0455985    1.5798315    6.7538143 
  575000   0.77190974 2.9209556e-05    0.4586422 0.00088131074            0   0.45776089     1.128918    1.5875602    4.5786188 
  580000   0.83586979 -6.1274932e-05   0.40412849   0.01093868            0   0.39318981    1.2224596    1.6265881    -4.647965 
  585000   0.80918166 5.4350556e-05   0.45506559  0.014345069            0   0.44072053    1.1834282    1.6384938    7.2039907 
  590000   0.76590617 5.8394682e-05   0.52366298 0.0070393816            0    0.5166236    1.1201378    1.6438008    7.6234162 
  595000   0.80023039 -6.1153037e-05   0.44459952  0.015497263            0   0.42910226    1.1703369    1.6149365   -4.6471345 
  600000   0.82101722 -5.5569496e-06   0.39835277  0.017276512            0   0.38107626    1.2007377    1.5990905    1.0300588 
  605000    0.8532362 -5.0309728e-05   0.33683444  0.014092985            0   0.32274146    1.2478579    1.5846924   -3.5670237 
  610000   0.79333501 4.6871329e-05   0.45663388  0.011859844            0   0.44477404    1.1602525    1.6168863    6.4165104 
  615000   0.87185483 5.8616021e-05   0.37163927  0.022933394            0   0.34870587    1.2750877    1.6467269    7.6490075 
  620000   0.73223673 6.7391695e-05   0.57646841  0.022072674            0   0.55439574    1.0708962    1.6473646    8.5482742 
  625000   0.90863749 5.3729539e-05   0.31915335  0.003720984            0   0.31543237    1.3288823    1.6480357    7.1499405 
  630000   0.76817754 -4.7581371e-05   0.55303454 0.00092366322            0   0.55211088    1.1234596    1.6764942   -3.1958383 
  635000   0.97231157 2.4965194e-05   0.23552737 0.00015546984            0    0.2353719    1.4220057     1.657533    4.2139689 
  640000     0.722764 -3.6459541e-05   0.59627547 0.0034227583            0   0.59285271    1.0570423    1.6533178   -2.0801392 
  645000   0.89557224 -3.64476e-05   0.33397989  0.013213324            0   0.32076656    1.3097744    1.6437543     -2.08848 
  650000   0.79976266 4.1254059e-05    0.4974466   0.01566563            0   0.48178097    1.1696529    1.6670995    5.8915152 
  655000   0.82113959 2.3468004e-05   0.48950846 0.0073522148            0   0.48215625    1.2009166    1.6904251    4.0935487 
  660000   0.77784183 -0.00011839727   0.53404205 0.0053404294            0   0.52870162    1.1375937    1.6716357   -10.452245 
  665000   0.92865782 -7.4199172e-06   0.35608341 0.0065658382            0   0.34951757    1.3581621    1.7142455   0.95444595 
  670000   0.86645287 8.4136461e-05   0.46706073  0.011251927            0    0.4558088    1.2671873    1.7342481    10.349822 
  675000   0.86880068 -6.480065e-05   0.44762119 0.0075529837            0   0.44006821     1.270621    1.7182422   -4.9173444 
  680000   0.88372162 -2.4246276e-05   0.40378241 0.0010281535            0   0.40275426    1.2924429    1.6962253  -0.78659341 
  685000   0.88138233 6.9211064e-06     0.350341 0.0029774259            0   0.34736358    1.2890217    1.6393627     2.348084 
  690000     0.771487 -0.00012375822   0.52814238 0.0033080819            0   0.52483429    1.1282997    1.6564421     -11.0164 
  695000   0.93298522 -3.9527854e-05   0.29855336  0.001242344            0   0.29731101    1.3644909    1.6630442    -2.384608 
  700000   0.83610588 5.7146263e-05   0.44584384 0.0002980303            0   0.44554581    1.2228048    1.6686487     7.520426 
  705000   0.86485664 -1.7161235e-05   0.41050079 0.00026976125            0   0.41023103    1.2648528    1.6753536  -0.08195682 
  710000   0.80483826 2.9289723e-05   0.50314539  6.79371e-05            0   0.50307745     1.177076    1.6802214     4.679489 
  715000   0.92533475 9.7577893e-06   0.31033483 0.00086550407            0   0.30946933    1.3533021    1.6636369    2.6628345 
  720000    0.9516434 3.8920013e-05   0.31420583   0.01427577            0   0.29993006    1.3917785    1.7059843    5.6913936 
  725000   0.88722137 6.8083929e-06   0.38129331  0.010443654            0   0.37084965    1.2975613    1.6788546     2.376034 
  730000   0.81624653 -0.00010691761   0.44775274  0.021157586            0   0.42659515    1.1937606    1.6415133   -9.3068503 
  735000   0.86111879 7.0925816e-05   0.41515416  0.034799743            0   0.38035442    1.2593862    1.6745404     8.937344 
  740000   0.92590972 8.7208279e-05   0.29849348  0.011428176            0   0.28706531     1.354143    1.6526364    10.582764 
  745000   0.74478063 2.0663824e-05   0.54163125   0.02059508            0   0.52103617    1.0892417    1.6308729    3.7468485 
  750000   0.81032287 4.9962915e-05   0.43296793  0.015151451            0   0.41781648    1.1850972    1.6180651    6.7342676 
  755000   0.86428543 -6.3657954e-06   0.37073451  0.010668153            0   0.36006636    1.2640174    1.6347519    0.9828945 
  760000   0.83140077 -6.4381608e-05   0.46053723  0.011290567            0   0.44924666    1.2159236    1.6764609   -4.9162158 
  765000   0.82365307 -4.2457859e-06   0.46324269  0.011982752            0   0.45125994    1.2045926    1.6678353    1.2330668 
  770000   0.93819258 -1.7648024e-05   0.32374643 0.0041503748            0   0.31959606    1.3721066    1.6958531  -0.11130454 
  775000   0.92251896 -2.8706687e-05   0.34233713 0.0011900665            0   0.34114706     1.349184    1.6915211   -1.2480436 
  780000   0.89342458 -3.050052e-05   0.37912428  0.004053955            0   0.37507033    1.3066335    1.6857577   -1.4374956 
  785000   0.88413349 6.0365585e-06   0.39674273  0.028284748            0   0.36845798    1.2930452     1.689788    2.3079315 
  790000   0.89052363 2.3786028e-05   0.38630349  0.018365881            0   0.36793761    1.3023908    1.6886943    4.1243836 
  795000   0.75980666 -5.9963467e-05   0.53829526  0.020011578            0   0.51828368    1.1112172    1.6495125   -4.4907465 
  800000   0.95097759 2.7176485e-05   0.27678636  0.028312836            0   0.24847353    1.3908047    1.6675911    4.4504631 
  805000   0.90934311 3.6457207e-05   0.32167886  0.019455703            0   0.30222316    1.3299143    1.6515932    5.3848111 
  810000   0.86644173 -4.5574699e-05   0.40777314 0.0079503108            0   0.39982283     1.267171    1.6749442    -2.991905 
  815000    0.8276011 8.7620718e-05    0.5050033  0.038242615            0   0.46676069    1.2103666    1.7153699    10.687731 
  820000   0.88512642 9.7012434e-05   0.42039305  0.053292297            0   0.36710075    1.2944974    1.7148904    11.648964 
  825000   0.96820489 6.8687104e-05   0.28676339  0.019660188            0    0.2671032    1.4159996     1.702763    8.7363224 
  830000   0.81581409 -8.7722757e-07   0.46978314 0.0025743552            0   0.46720879    1.1931281    1.6629113    1.5730832 
  835000   0.85057338 -4.5992781e-05   0.40863633 0.0013550839            0   0.40728125    1.2439636    1.6525999   -3.0570608 
  840000   0.89604197 6.9930273e-05   0.37279657 0.0011416397            0   0.37165493    1.3104614    1.6832579    8.8441179 
  845000   0.89312627 -3.4043527e-05    0.3980861 0.0014062937            0    0.3966798    1.3061972    1.7042833   -1.7817739 
  850000    0.8775696 -1.5762089e-05    0.4298058 0.0029632547            0   0.42684255    1.2834455    1.7132513  0.099213434 
  855000   0.91276476 7.5802475e-05   0.40445533 0.0062040515            0   0.39825128    1.3349185    1.7393738    9.5015472 
  860000   0.86970611 -1.787677e-05   0.50625308  0.027669829            0   0.47858325    1.2719452    1.7781983 -0.052383018 
  865000   0.94485487 -3.0954422e-05   0.40176718  0.030103211            0   0.37166396    1.3818503    1.7836174   -1.3861153 
  870000   0.98593909 6.1063039e-05   0.38404151  0.005623626            0   0.37841788    1.4419359    1.8259774    8.0788326 
  875000   0.99097785 -1.9182318e-06   0.41263421 0.0081738979            0   0.40446031    1.4493051    1.8619393    1.6655124 
  880000   0.95943957 -7.7649174e-05   0.50922447  0.034980362            0   0.47424411    1.4031804    1.9124048   -6.0388706 
  885000   0.97635266 1.2764505e-05   0.50814262  0.011304141            0   0.49683848    1.4279158    1.9360584    3.2431437 
  890000   0.99841534 4.8653372e-05   0.49978195 0.0042583433            0   0.49552361    1.4601824    1.9599644    6.9420697 
  895000    1.0736244 -3.4872688e-05   0.34378421  0.022846821            0   0.32093738    1.5701756    1.9139598   -1.6570034 
  900000   0.86013719 -4.5459248e-05   0.65308913  0.073615995            0   0.57947314    1.2579506    1.9110398   -2.7439873 
  905000   0.97534281 -5.7949455e-06   0.49774867  0.095886789            0   0.40186188    1.4264389    1.9241875    1.3307851 
  910000   0.92825111 -2.5156415e-05   0.56777746  0.027600662            0    0.5401768    1.3575672    1.9253447  -0.65067215 
  915000     1.020225 9.8596961e-06   0.43191674  0.021723471            0   0.41019327    1.4920791    1.9239958    2.9336287 
  920000    1.0483816 6.3939674e-05   0.38217885 0.0067685706            0   0.37541028    1.5332581    1.9154369    8.4628596 
  925000   0.92524924 6.8296835e-05     0.579051  0.039804309            0   0.53924669     1.353177     1.932228    8.9258239 
  930000    1.0008514 -4.1829508e-06   0.46567548  0.034688249            0   0.43098723    1.4637452    1.9294207    1.5010866 
  935000   0.96965047 -3.0739641e-05   0.47077936 0.0002648793            0   0.47051448    1.4181138    1.8888932   -1.2588461 
  940000    1.0464048 -3.888572e-05   0.35798043 0.00067409099            0   0.35730634    1.5303671    1.8883475   -2.0935502 
  945000    0.9589113 -5.3033826e-05   0.51629544 0.0039942109            0   0.51230123    1.4024078    1.9187032   -3.5119605 
  950000    1.1191344 -9.4781256e-06   0.32041882 0.0085261799            0   0.31189264    1.6367341    1.9571529   0.98659287 
  955000   0.96963017 5.3032516e-05   0.56423741 0.0058542607            0   0.55838315    1.4180841    1.9823215    7.4128511 
  960000     1.016958 -3.6865004e-05   0.48335861  0.026819855            0   0.45653875    1.4873011    1.9706597   -1.8043167 
  965000     1.061694 -5.3203151e-05   0.43311776 0.0060386844            0   0.42707908    1.5527275    1.9858452   -3.4621575 
  970000    1.0539036 8.7626502e-06   0.49542561 0.0053129672            0   0.49011265     1.541334    2.0367597     2.934055 
  975000   0.99537385 -5.4182208e-05   0.57071945  0.018816035            0   0.55190341    1.4557343    2.0264537   -3.5218044 
  980000    1.1185581 -1.8213565e-05   0.39114713  0.011400949            0   0.37974618    1.6358912    2.0270383   0.16196922 
  985000    1.0764034 3.5203239e-05   0.46105868  0.012281604            0   0.44877707      1.57424    2.0352986    5.6401103 
  990000   0.94780723 -3.3638959e-05   0.61931997  0.050527258            0   0.56879271    1.3861681     2.005488   -1.4391413 
  995000    1.1214253 -2.4429241e-05   0.39020987  0.020629552            0   0.36958031    1.6400845    2.0302944  -0.47125988 
 1000000    1.0452706 4.9670438e-05   0.49409351 0.0077464676            0   0.48634704    1.5287082    2.0228017    7.1090545 
 1005000   0.98086393 7.7317054e-05   0.61747087  0.033974173            0   0.58349669    1.4345135    2.0519844    9.9692507 
 1010000      1.09066 1.9362969e-05   0.44261687  0.011926036            0   0.43069083    1.5950902    2.0377071    4.0204751 
 1015000    1.1562908 -5.979635e-05   0.31890237            0            0   0.31890237    1.6910753    2.0099776   -4.1131686 
 1020000    1.0154495 -3.0535358e-05   0.49085555            0            0   0.49085555    1.4850948    1.9759504   -1.1508703 
 1025000     1.076568 2.4995165e-05   0.34053228  0.048953265            0   0.29157902    1.5744806    1.9150129    4.4745178 
 1030000   0.99959665 -1.2893019e-05   0.46712327    0.0785606            0   0.38856267    1.4619101    1.9290334    0.6087882 
 1035000    1.0911767 2.0295167e-05   0.36782628  0.016090596            0   0.35173569     1.595846    1.9636722    4.0418973 
 1040000    1.0360158 4.8132654e-05   0.41841419  0.054771739            0   0.36364245    1.5151731    1.9335873     6.862371 
 1045000   0.98811421 -2.8630798e-05    0.4748395  0.080350152            0   0.39448934     1.445117    1.9199565   -1.0118372 
 1050000     1.038602 -4.6874254e-05   0.40522408  0.024324842            0   0.38089923    1.5189555    1.9241795   -2.8757441 
 1055000    0.9675516 5.4838284e-05   0.54265594 0.0074196971            0   0.53523624    1.4150442    1.9577002    7.5731404 
 1060000    1.0569539 2.3953978e-05   0.40896619 0.0091323179            0   0.39983387    1.5457951    1.9547613    4.4076486 
 1065000    1.1366081 -5.6951662e-05   0.28529322 0.0087033692            0   0.27658985    1.6622893    1.9475825   -3.8842677 
 1070000   0.89703229 -5.4240689e-05   0.62195454  0.056931449            0   0.56502309    1.3119097    1.9338643   -3.6203823 
 1075000   0.90671269 1.2789023e-05   0.59287559  0.053519165            0   0.53935643    1.3260673    1.9189429    3.2285389 
 1080000   0.96165041 7.8693819e-05   0.50943957  0.014406324            0   0.49503325    1.4064137    1.9158533    9.9741004 
 1085000    1.0331691 1.0887824e-05   0.39620044 0.00086043387            0      0.39534    1.5110098    1.9072102    3.0221234 
 1090000    1.0170259 -4.032667e-05   0.45034844  0.020309964            0   0.43003847    1.4874004    1.9377489   -2.1917021 
 1095000   0.98968329 7.3638874e-05   0.47089064  0.076767849            0   0.39412279    1.4474118    1.9183024    9.4589232 
 1100000    1.0784613 -3.5709855e-06   0.30837039  0.048756802            0   0.25961358    1.5772496      1.88562    1.5199511 
 1105000   0.91961786 -0.0001369856   0.53654355 0.0062992216            0   0.53024433    1.3449411    1.8814847   -12.145841 
 1110000   0.99562963 -1.0398759e-05   0.46001729            0            0   0.46001729    1.4561083    1.9161256    0.8512927 
 1115000    1.0092462 5.860645e-06   0.46207588 0.00092640845            0   0.46114947    1.4760225    1.9380984    2.5382284 
 1120000    1.0488678 6.725696e-05   0.42055801 0.0043571491            0   0.41620087    1.5339692    1.9545272    8.8416399 
 1125000    1.0148284 -4.3818934e-05   0.47986555  0.005195839            0   0.47466971    1.4841865    1.9640521   -2.5230068 
 1130000    1.0311817 -8.6904529e-05   0.39478313 0.00032988358            0   0.39445324    1.5081033    1.9028864   -6.9961373 
 1135000    1.0128729 -2.2337191e-06   0.40043239            0            0   0.40043239    1.4813266     1.881759    1.6530261 
 1140000   0.93433443 -3.5867871e-05   0.55021592 0.00061913531            0   0.54959678    1.3664641      1.91668     -1.75619 
 1145000    1.1008666 4.7456642e-05   0.31624516  0.039391322            0   0.27685384    1.6100173    1.9262625    6.7858226 
 1150000   0.99922038 -1.3220878e-05   0.50196324  0.058964254            0   0.44299899    1.4613598     1.963323   0.60950512 
 1155000    1.0909707 3.6230492e-05   0.38510586   0.04211876            0    0.3429871    1.5955446    1.9806505    5.6906529 
 1160000    1.0083335 5.0819695e-05   0.50182206  0.019733399            0   0.48208866    1.4746878    1.9765098    7.1804466 
 1165000    1.0379661 -9.1469865e-05   0.45717546  0.012385245            0   0.44479022    1.5180254    1.9752009   -7.3913133 
 1170000     1.054135 -9.0589876e-05   0.43229024 0.0046685272            0   0.42762171    1.5416724    1.9739626   -7.3024406 
 1175000    1.0836619 -1.2557788e-05   0.38868257  0.060013975            0   0.32866859    1.5848555    1.9735381   0.68762063 
 1180000   0.97017747 3.1358208e-05   0.53430286  0.043521796            0   0.49078106    1.4188846    1.9531874     5.164268 
 1185000    1.1036858 1.7532477e-05   0.34617032   0.03945235            0   0.30671797    1.6141404    1.9603108    3.7556364 
 1190000   0.93505327 -7.2238019e-05   0.58072622  0.099579882            0   0.48114634    1.3675154    1.9482416   -5.4489315 
 1195000    1.0485328 -5.3831357e-05     0.429859 0.0052575486            0   0.42460145    1.5334793    1.9633383   -3.5489927 
 1200000    1.1499439 9.0954748e-05   0.32343206 0.0038897179            0   0.31954234     1.681793    2.0052251    11.318991 
 1205000    1.1091953 9.529115e-05   0.40193159  0.017074053            0   0.38485754    1.6221981    2.0241297    11.781943 
 1210000    1.1199668 -6.6395689e-05   0.36241344  0.024342976            0   0.33807046    1.6379514    2.0003648   -4.7985537 
 1215000   0.91207453 -9.0066828e-05    0.6246573  0.016540936            0   0.60811636     1.333909    1.9585663   -7.2642769 
 1220000     1.091387 3.6325664e-05   0.38472349   0.02316933            0   0.36155416    1.5961535     1.980877     5.700625 
 1225000   0.96480851 0.0001193409   0.54166622  0.069000838            0   0.47266538    1.4110324    1.9526987    14.173206 
 1230000    1.0295635 4.4111452e-05   0.43221598  0.054360153            0   0.37785583    1.5057366    1.9379526    6.4549652 
 1235000   0.97932948 -2.4685882e-05   0.56390148   0.03889766            0   0.52500382    1.4322694    1.9961708   -0.5316635 
 1240000   0.93615309 1.0452985e-05   0.61186595  0.071392479            0   0.54047347    1.3691239    1.9809898    3.0513755 
 1245000      1.09519 -1.5767709e-05   0.40023736   0.02967184            0   0.37056552    1.6017154    2.0019528   0.38733941 
 1250000    1.0927106 -2.6887452e-05   0.44526985  0.015953014            0   0.42931684    1.5980893    2.0433591  -0.70991597 
 1255000    1.1025051 1.5218602e-05   0.46794552  0.042471943            0   0.42547358    1.6124137    2.0803592    3.6387441 
 1260000    1.0566639 -1.7612305e-05   0.49819561  0.095544299            0   0.40265131    1.5453709    2.0435665   0.24006647 
 1265000   0.94946299 -8.9457225e-06   0.61026346   0.06793482            0   0.54232864    1.3885896    1.9988531    1.0828111 
 1270000    0.9584181 -1.6718718e-05   0.59017999   0.16227934            0   0.42790065    1.4016865    1.9918665   0.27986977 
 1275000    1.0997857 4.8553095e-06    0.3810396 0.0058247257            0   0.37521488    1.6084365    1.9894761    2.4866598 
 1280000    1.0561701 2.758187e-05   0.43162535            0            0   0.43162535    1.5446488    1.9762741    4.8006576 
 1285000    1.0256203 -4.8977312e-05    0.4511048            0            0    0.4511048    1.4999697    1.9510745   -3.0642022 
 1290000    1.0917786 4.7422068e-05   0.40101841            0            0   0.40101841    1.5967262    1.9977446    6.8537644 
 1295000    1.0597403 5.412254e-05   0.43877836 0.0069678181            0   0.43181054    1.5498702    1.9886486    7.5307966 
 1300000   0.94559086 -2.3250006e-05   0.58663307  0.025921602            0   0.56071147    1.3829266    1.9695597  -0.41124091 
 1305000    1.1365576 3.0118903e-05   0.33742019  0.014661658            0   0.32275853    1.6622155    1.9996357    5.0838114 
 1310000   0.97974414 4.4647542e-05   0.55669419  0.010830553            0   0.54586363    1.4328758      1.98957    6.5614783 
 1315000    1.0854115 -4.0640014e-05   0.38254377   0.01428746            0   0.36825631    1.5874143     1.969958   -2.1915794 
 1320000    1.0332044 -1.8317597e-05   0.44790497  0.018773904            0   0.42913106    1.5110615    1.9589665  0.083244481 
 1325000   0.89727149 8.3848133e-05   0.62939391  0.053192025            0   0.57620188    1.3122595    1.9416535    10.527702 
 1330000   0.97647534 -1.3766721e-05   0.50024822  0.051870427            0   0.44837779    1.4280952    1.9283434   0.51863119 
 1335000    0.9782079  2.03408e-05   0.50227439  0.004198532            0   0.49807586    1.4306291    1.9329034    4.0158014 
 1340000    1.0332544 1.5491867e-05   0.42380657  0.016721407            0   0.40708517    1.5111346    1.9349411    3.5213083 
 1345000   0.94291079 -4.3936473e-05   0.56246886  0.021245311            0   0.54122355     1.379007    1.9414759    -2.557619 
 1350000    1.0308931 4.3825502e-05   0.40267235   0.03072472            0   0.37194763    1.5076812    1.9103535    6.3980849 
 1355000    1.0042055 7.3048323e-05   0.49935665  0.042428047            0    0.4569286    1.4686506    1.9680073    9.4481555 
 1360000   0.98093728 1.945237e-05    0.5121378  0.026757344            0   0.48538045    1.4346208    1.9467586    3.9386813 
 1365000    1.0239385 5.0633698e-05   0.41493219 0.0064065144            0   0.40852568      1.49751    1.9124422    7.0973329 
 1370000   0.94034564 -7.7580144e-07   0.51876476  0.004922622            0   0.51384214    1.3752555    1.8940203    1.8145782 
 1375000    1.0584048 -4.6861214e-05   0.36821139 0.0011490422            0   0.36706235     1.547917    1.9161284   -2.8824599 
 1380000     1.026272 -2.9597478e-06   0.42548249 2.3749887e-06            0   0.42548012    1.5009228    1.9264053    1.6233271 
 1385000    1.0212214 -6.6103078e-06   0.40692821  0.011694515            0   0.39523369    1.4935363    1.9004645    1.2235689 
 1390000   0.93063948 -5.8812333e-05   0.56129878  0.033783327            0   0.52751545    1.3610602     1.922359   -4.1000239 
 1395000    1.0048603 2.3303595e-05   0.43887411  0.005685511            0    0.4331886    1.4696083    1.9084824    4.2947705 
 1400000   0.97981041 9.842993e-05   0.44750554 0.0029913586            0   0.44451418    1.4329727    1.8804783    11.959703 
 1405000   0.96083499 -1.1559526e-05   0.45082188 0.0095832674            0   0.44123861    1.4052212    1.8560431   0.67234758 
 1410000   0.96732393 -4.0413793e-05   0.43506881  0.013895638            0   0.42117317    1.4147112    1.8497801   -2.2885923 
 1415000    0.9584334 3.0504617e-05   0.43055656  0.025436135            0   0.40512043    1.4017089    1.8322654    4.9559382 
 1420000   0.95576207  7.35912e-06   0.42995481  0.038807809            0     0.391147     1.397802    1.8277568    2.5813307 
 1425000    1.0252678 -8.3974861e-05   0.34253598  0.018549616            0   0.32398636    1.4994541    1.8419901   -6.7570357 
 1430000   0.90892968 -7.6860375e-05   0.51568715 0.0053226822            0   0.51036447    1.3293097    1.8449968   -6.0255056 
 1435000   0.97151785 1.8899988e-05   0.41716649 0.0061140925            0   0.41105239    1.4208448    1.8380113    3.7733702 
 1440000   0.90120307 9.7718458e-05   0.48269375  0.013398012            0   0.46929574    1.3180095    1.8007032    11.807073 
 1445000   0.94605604 5.1586761e-05   0.45127291   0.01833501            0    0.4329379     1.383607    1.8348799    7.1173642 
 1450000   0.97660003 -4.396548e-05   0.44429658  0.032693269            0   0.41160331    1.4282775    1.8725741    -2.629491 
 1455000   0.96437541 -3.590068e-05   0.53733791  0.027608531            0   0.50972938     1.410399     1.947737   -1.7284927 
 1460000   0.97457851 -1.6540655e-05   0.52464437  0.048805184            0   0.47583919    1.4253211    1.9499654   0.25620236 
 1465000    1.0327407 -3.4421713e-05   0.48918208  0.054338439            0   0.43484364    1.5103833    1.9995654    -1.525218 
 1470000    1.0855298 -9.5186815e-05   0.45085544  0.027292523            0   0.42356292    1.5875874    2.0384428    -7.708687 
 1475000    1.0411432 -7.063138e-05   0.54633183 0.0039969314            0    0.5423349     1.522672    2.0690038   -5.1636495 
 1480000     1.175781 9.5781689e-05   0.38898142 0.00013099499            0   0.38885042    1.7195798    2.1085612    11.916606 
 1485000    1.1033701 0.00011984302   0.51143301  0.002632339            0   0.50880067    1.6136788    2.1251118    14.397038 
 1490000    1.1087611 -5.6695001e-06   0.48272074    0.0205652            0   0.46215554    1.6215632    2.1042839    1.5237271 
 1495000    1.0958316 4.1882394e-05   0.50704248  0.016965355            0   0.49007713    1.6026538    2.1096962    6.3984534 
 1500000    1.1895639 3.410144e-05   0.39866643  0.016241183            0   0.38242524    1.7397372    2.1384036    5.6303911 
 1505000    1.1585342 3.5870421e-06   0.42612673  0.025679273            0   0.40044745    1.6943562    2.1204829     2.487796 
 1510000    1.0845396 3.2926394e-05     0.544036  0.030179767            0   0.51385623    1.5861392    2.1301752     5.501838 
 1515000    1.0802353 -0.00010485439   0.56728035  0.072248762            0   0.49503159    1.5798441    2.1471244   -8.5899652 
 1520000    1.1978435 -2.5473457e-05   0.44501973  0.031587951            0   0.41343177    1.7518461    2.1968659  -0.41161617 
 1525000    1.2436122 -5.6957459e-06    0.3369828 0.0057933801            0   0.33118942    1.8187828    2.1557656    1.5725212 
 1530000    1.0652846 -3.4736524e-05   0.63373996 0.0021268872            0   0.63161307    1.5579787    2.1917187   -1.3653014 
 1535000     1.192795 3.5613874e-05     0.471461  0.016041934            0   0.45541907    1.7444628    2.2159238    5.8627845 
 1540000    1.1671833 -3.6212055e-05   0.50236321  0.074846581            0   0.42751663    1.7070056    2.2093688   -1.4987456 
 1545000    1.1930973 -9.5858243e-05   0.45814929  0.036701844            0   0.42144744    1.7449047     2.203054     -7.61283 
 1550000    1.1820585 -4.4922952e-05   0.44042015  0.012002681            0   0.42841747    1.7287605    2.1691807   -2.4309296 
 1555000     1.158242 6.2251451e-05   0.46203352  0.022664084            0   0.43936944     1.693929    2.1559625    8.5305111 
 1560000    1.0528757 0.00015165292   0.62790151  0.054156076            0   0.57374544    1.5398308    2.1677323    17.696992 
 1565000    1.1544376 6.9675869e-05   0.48435623  0.030232184            0   0.45412405    1.6883651    2.1727213    9.3075303 
 1570000    1.1080862 4.4581046e-05   0.57253577  0.024887314            0   0.54764845    1.6205761    2.1931118     6.758211 
 1575000    1.1876947 9.8718407e-05   0.44089139   0.03205093            0   0.40884046    1.7370035    2.1778949     12.28666 
 1580000    1.2024825 0.00010775756   0.41994553  0.018979833            0    0.4009657    1.7586306    2.1785761     13.21295 
 1585000    1.2325637 -1.0618707e-05   0.37332881 0.0011082014            0    0.3722206    1.8026245    2.1759533    1.0885977 
 1590000     1.078426 -0.00015128059   0.54638815            0            0   0.54638815    1.5771981    2.1235862   -13.367546 
 1595000    1.0674594 -0.00016354768   0.59818105 0.0010274428            0   0.59715361    1.5611594    2.1593405   -14.587941 
 1600000    1.2036356 -2.9559336e-05   0.36302018  0.022806369            0   0.34021381    1.7603171    2.1233373  -0.90353875 
 1605000    1.0780064 8.6003861e-05   0.52391448  0.022484596            0   0.50142989    1.5765844    2.1004989    10.907294 
 1610000    1.1235993 3.2220096e-05   0.45669297 0.0012711602            0   0.45542181     1.643264     2.099957    5.3992948 
 1615000     1.175828 -3.6859543e-05   0.38304299 0.0068707321            0   0.37617226    1.7196484    2.1026914   -1.6717257 
 1620000    1.0902961 -6.8211068e-05   0.47760856  0.017455985            0   0.46015258     1.594558    2.0721666   -4.9126468 
 1625000    1.0508903 -4.6480148e-05   0.51258351  0.051922465            0   0.46066105    1.5369271    2.0495106   -2.7100566 
 1630000    1.0166044 2.9108909e-05   0.59505514   0.11862233            0   0.47643281     1.486784    2.0818391    5.0625914 
 1635000     1.083001 5.9498536e-06    0.4741311  0.062064855            0   0.41206624     1.583889    2.0580201    2.6672851 
 1640000   0.99104355 -4.3868218e-05   0.58900199  0.088815371            0   0.50018661    1.4494012    2.0384032   -2.4537024 
 1645000    1.0093887 -1.4355959e-05   0.58989473  0.050547958            0   0.53934677     1.476231    2.0661257   0.59607555 
 1650000    1.1267466 5.452382e-05   0.43554247  0.038581125            0   0.39696134     1.647867    2.0834094    7.6666486 
 1655000    1.0772291 2.2972901e-05    0.5132026  0.026336479            0   0.48686612    1.5754476    2.0886502    4.4410753 
 1660000   0.99842643 5.9536547e-05   0.61376689   0.02616583            0   0.58760106    1.4601987    2.0739655    8.1705079 
 1665000    1.1738235 -2.6577089e-05   0.42347885 0.0034705826            0   0.42000827    1.7167168    2.1401957  -0.58129827 
 1670000    1.1639537 5.0101689e-06   0.47372087 0.0099655961            0   0.46375527    1.7022823    2.1760032    2.6890444 
 1675000    1.0845592 6.6989503e-05   0.63443874  0.023565138            0    0.6108736    1.5861678    2.2206065    9.0803316 
 1680000    1.1639357 -4.6749842e-05   0.51501257   0.02318225            0   0.49183032     1.702256    2.2172686   -2.5699153 
 1685000    1.1736879 -4.2759499e-05    0.5249322  0.020230266            0   0.50470193    1.7165186    2.2414508    -2.137122 
 1690000    1.1031738 -3.4475349e-05   0.59349352 0.0087884553            0   0.58470506    1.6133916    2.2068852   -1.3233906 
 1695000    1.1689316 -9.7386892e-05   0.48869747 0.0052700184            0   0.48342746    1.7095624    2.1982599   -7.7741579 
 1700000    1.2209176 7.2272831e-05   0.37825889  0.019605101            0   0.35865379     1.785592    2.1638509    9.5645888 
 1705000    1.1015532 6.5804838e-05   0.59330538  0.045573614            0   0.54773177    1.6110215    2.2043269    8.9427423 
 1710000     1.141596 8.8204213e-05   0.53814161   0.03972635            0   0.49841526    1.6695842    2.2077258    11.239837 
 1715000    1.1588201 1.1722532e-05   0.45094921  0.016750877            0   0.43419833    1.6947744    2.1457236    3.3461108 
 1720000     1.164294 -9.8038956e-06   0.41937506 0.0014362506            0   0.41793881    1.7027799     2.122155    1.1182361 
 1725000    1.1595959 9.6642998e-06   0.44879912 0.0015357829            0   0.44726334    1.6959091    2.1447082    3.1343325 
 1730000    1.0409995 4.7469717e-05   0.62519466  0.032708505            0   0.59248616    1.5224618    2.1476565    7.0085555 
 1735000    1.1222277 -4.4935112e-05   0.49449541  0.079179264            0   0.41531614     1.641258    2.1357534    -2.465602 
 1740000    1.0321096 5.2566277e-05     0.637934  0.063206609            0   0.57472739    1.5094603    2.1473943    7.5301811 
 1745000     1.037959 2.8818272e-05   0.64047627   0.06481357            0    0.5756627    1.5180151    2.1584913    5.1094824 
 1750000    1.0972035 1.8961366e-05    0.5556456  0.037786586            0   0.51785901    1.6046602    2.1603058    4.1019496 
 1755000    1.1699851 -7.9253541e-05   0.46868316  0.019503306            0   0.44917985    1.7111032    2.1797864   -5.9357762 
 1760000    1.0977935 -0.00013007556   0.65324848   0.14481257            0   0.50843591     1.605523    2.2587715   -11.060966 
 1765000    1.0764102 -2.222674e-05   0.59600006  0.089012108            0   0.50698795    1.5742498    2.1702499  -0.10576823 
 1770000    1.0754162 9.8867968e-06   0.57588851  0.064058846            0   0.51182966    1.5727962    2.1486847    3.1610927 
 1775000    1.1126074 4.5260625e-05   0.48270013  0.025240954            0   0.45745917    1.6271883    2.1098885    6.7445765 
 1780000   0.93812173 6.2490852e-05   0.75308826  0.002936736            0   0.75015153     1.372003    2.1250913    8.5241546 
 1785000    1.0305695 7.6401133e-05   0.61063933 0.0032981828            0   0.60734114    1.5072079    2.1178472    9.9413232 
 1790000    1.1880758 6.493827e-05   0.36700336   0.01569928            0   0.35130408    1.7375609    2.1045642    8.7542431 
 1795000    1.1529301 -1.7423677e-05   0.42418001  0.055689398            0   0.36849061    1.6861603    2.1103403   0.32615578 
 1800000    1.0051848 -5.3548956e-05   0.61012463   0.09425771            0   0.51586692    1.4700828    2.0802075   -3.4032056 
 1805000    1.1080796 -7.0968472e-06   0.46824499   0.08007043            0   0.38817456    1.6205665    2.0888115    1.3620943 
 1810000     1.108024 2.4937562e-05   0.48699934  0.059667268            0   0.42733207    1.6204851    2.1074844    4.6610908 
 1815000    1.0995712 3.3905573e-06   0.49867967  0.028634243            0   0.47004542    1.6081229    2.1068026    2.4539956 
 1820000    1.2301485 4.254672e-05   0.33395243 0.0089282908            0   0.32502414    1.7990922    2.1330446    6.4898287 
 1825000    1.1142445 4.5918615e-05   0.43532741 0.0091899257            0   0.42613748    1.6295825      2.06491    6.7669761 
 1830000    1.1034474 -9.1626138e-06   0.43353866  0.023225246            0   0.41031341    1.6137918    2.0473305    1.1090788 
 1835000    1.0646678 -7.7810167e-05    0.4449088  0.037649278            0   0.40725952    1.5570767    2.0019855   -5.9657756 
 1840000   0.99702964 2.1082873e-05   0.54669508  0.081062486            0   0.46563259    1.4581558    2.0048509    4.1637371 
 1845000    1.0781296 7.3057665e-05   0.42354853  0.048914544            0   0.37463398    1.5767645    2.0003131     9.481418 
 1850000    1.0094963 -7.1098207e-05   0.55229216  0.013889861            0    0.5384023    1.4763883    2.0286805   -5.2517759 
 1855000    1.0607254 -5.3012099e-06   0.50249831 0.0083479215            0   0.49415039    1.5513109    2.0538092    1.5109653 
 1860000    0.9755762 -3.3966645e-05   0.63229061 0.0015050302            0   0.63078558    1.4267802    2.0590708   -1.4191137 
 1865000    1.1775582 -4.4913383e-05   0.32867813 0.00060195439            0   0.32807617    1.7221789     2.050857   -2.5482734 
 1870000    1.1474925 3.7006383e-05   0.39115207 0.0045121934            0   0.38663987    1.6782077    2.0693598    5.8588134 
 1875000    1.1077032 4.5045264e-05   0.47976098  0.033520885            0   0.44624009     1.620016     2.099777     6.712412 
 1880000    1.0665333 7.3056853e-05   0.48139567   0.04489101            0   0.43650466    1.5598049    2.0412006    9.5222223 
 1885000    1.1258361 6.5138143e-05   0.42131093  0.012938148            0   0.40837278    1.6465353    2.0678463    8.7379921 
 1890000    1.0667786 -1.0978545e-05   0.47507896  0.017382875            0   0.45769609    1.5601637    2.0352427   0.91103969 
 1895000   0.98244492 -2.3984212e-05   0.57489319  0.014827418            0   0.56006577    1.4368257    2.0117189   -0.4442644 
 1900000     1.015269 -3.0436842e-05   0.51019056  0.012373033            0   0.49781753    1.4848309    1.9950214   -1.1217112 
 1905000    1.0204231 3.216201e-05   0.51849741   0.07456755            0   0.44392986    1.4923687    2.0108662     5.304256 
 1910000   0.99704906 -6.5012373e-06    0.5673133  0.029123816            0   0.53818948    1.4581843    2.0254976    1.3597709 
 1915000    1.0522149 3.5313135e-05   0.45410761  0.014260194            0   0.43984742    1.5388643    1.9929719    5.6090369 
 1920000    1.0802472 3.0296103e-05   0.40093911  0.032456873            0   0.36848224    1.5798616    1.9808007    5.0831217 
 1925000     1.077699 2.9572427e-05   0.45110177   0.06752309            0   0.38357868    1.5761348    2.0272365     5.055453 
 1930000     1.037361 -2.0995803e-07   0.52175048  0.026845527            0   0.49490495    1.5171405    2.0388909    2.0173912 
 1935000    1.0189543 -6.5234588e-05   0.53996822            0            0   0.53996822    1.4902207    2.0301889   -4.6498329 
 1940000    1.0044414 -9.9578653e-06   0.54274201  0.030228384            0   0.51251362    1.4689955    2.0117375   0.99205212 
 1945000    1.0696669 1.3659486e-05   0.49127142    0.0507427            0   0.44052872    1.5643878    2.0556592    3.4543906 
 1950000    1.0910622 -7.9854366e-06   0.42433566  0.030022161            0    0.3943135    1.5956785    2.0200141    1.2023054 
 1955000     1.073833 -6.4720237e-05   0.46461867  0.044153795            0   0.42046488    1.5704808    2.0350994   -4.5922528 
 1960000   0.99103451 -7.5942968e-05   0.54644429  0.026817354            0   0.51962694     1.449388    1.9958323   -5.7807277 
 1965000    1.0071366 -2.0663534e-05   0.54432322 3.6020258e-05            0    0.5442872    1.4729373    2.0172606 -0.098685294 
 1970000    1.1155897 -6.9825391e-06   0.38772544 0.0080031674            0   0.37972228    1.6315499    2.0192754    1.3042634 
 1975000    1.0689033 -8.535963e-06   0.44812332  0.046049234            0   0.40207408    1.5632711    2.0113944    1.1373118 
 1980000    1.0813681 -2.0903142e-05   0.41288084   0.01420847            0   0.39867237    1.5815008    1.9943816  -0.14610012 
 1985000   0.93098681 -5.9913689e-05   0.57520605   0.01092002            0   0.56428603    1.3615682    1.9367743   -4.1983875 
 1990000    1.0709644 -7.6534634e-06   0.34767344 0.0052662048            0   0.34240724    1.5662854    1.9139589    1.1302442 
 1995000   0.97332488 3.8682846e-05   0.52671805 0.0013224904            0   0.52539556    1.4234876    1.9502057    5.9113291 
 2000000   0.93355454 -8.7260751e-06   0.57632598 0.0037251837            0   0.57260079    1.3653235    1.9416495    1.0480994 
 2005000   0.97015877 -4.8229294e-05   0.48762991  0.018741828            0   0.46888808    1.4188572    1.9064871   -3.0321926 
 2010000   0.82681182 -1.5118804e-05    0.7238787  0.056849208            0   0.66702949    1.2092123     1.933091   0.38492546 
 2015000    1.0625785 -3.2577666e-05   0.40437236  0.019490472            0   0.38488189    1.5540211    1.9583935   -1.3775596 
 2020000    1.0990682 -3.2629917e-06    0.3676681  0.016825591            0    0.3508425    1.6073872    1.9750553     1.640925 
 2025000     1.032318 2.3557867e-05   0.49238295   0.01381446            0   0.47856849     1.509765     2.002148    4.4144736 
 2030000   0.92028321 -3.0872042e-05   0.64410355  0.001260328            0   0.64284322    1.3459142    1.9900177   -1.1712794 
 2035000    1.0953148 -4.5686069e-05   0.39114164 0.0032578266            0   0.38788382    1.6018979    1.9930396   -2.6852139 
 2040000    1.0341697 -2.7885542e-06   0.45718969  0.024868237            0   0.43232146    1.5124731    1.9696628    1.6841149 
 2045000    0.9909268 3.8256466e-05   0.51920569  0.034669086            0    0.4845366    1.4492304    1.9684361    5.8858982 
 2050000    1.0246193 5.5634642e-05   0.51688844  0.013262654            0   0.50362578    1.4985057    2.0153941    7.7123814 
 2055000    1.1039082 -7.7633327e-06   0.43045887 0.0042983183            0   0.42616055    1.6144658    2.0449246    1.2499594 
 2060000    1.0636135 -3.736867e-05   0.51782605  0.025363841            0   0.49246221    1.5555347    2.0733608   -1.7531911 
 2065000    1.0329807 3.6755441e-05   0.57642229     0.046512            0   0.52991029    1.5107343    2.0871566    5.8509137 
 2070000   0.97090341 5.2980364e-05   0.65279351  0.046973911            0    0.6058196    1.4199462    2.0727397     7.497929 
 2075000    1.1298897 3.1973029e-05   0.39795093  0.022056888            0   0.37589405    1.6524637    2.0504147    5.3244528 
 2080000    1.0622066 1.8324754e-05     0.458195 0.0036623845            0   0.45453262    1.5534771    2.0116721    3.8881269 
 2085000    1.0275732 2.278871e-05   0.49840888 0.0032151907            0   0.49519369    1.5028259    2.0012347    4.3347986 
 2090000    1.0816924 4.5232886e-05   0.41278851    0.0086031            0   0.40418541    1.5819751    1.9947636    6.6266112 
 2095000   0.93935686 1.0186175e-05   0.63373443  0.018432199            0   0.61530224    1.3738094    2.0075438    3.0506082 
 2100000    1.1842256 5.5413378e-06   0.34174121  0.010612387            0   0.33112883    1.7319299    2.0736712    2.6411041 
 2105000    1.0457304 -4.2329608e-05   0.51872234 0.0060552422            0    0.5126671    1.5293807    2.0481031   -2.2864488 
 2110000    1.0032653 -5.1779054e-05   0.54613378  0.024623507            0   0.52151028    1.4672755    2.0134092   -3.2887658 
 2115000    1.0452524 -7.3898564e-05   0.50088873  0.012189145            0   0.48869958    1.5286817    2.0295704   -5.5376426 
 2120000    1.1087322 -3.6400705e-05   0.40030816 0.0030440134            0   0.39726414    1.6215208    2.0218289   -1.7056033 
 2125000    1.1224687 5.3292901e-05   0.37741731  0.034419604            0   0.34299771    1.6416105    2.0190279     7.476221 
 2130000   0.93908367 2.0605401e-05   0.64095246  0.043161307            0   0.59779115    1.3734099    2.0143623    4.1243554 
 2135000   0.94624028 9.4460344e-06   0.64481448  0.073101743            0   0.57171274    1.3838764    2.0286909    2.9959648 
 2140000    1.1117384 7.4335748e-06   0.35127757  0.025715751            0   0.32556182    1.6259174     1.977195    2.7383931 
 2145000   0.96236076 1.1553646e-05   0.53486843   0.06373726            0   0.47113117    1.4074526     1.942321    3.1254144 
 2150000    1.0453325 -3.9570596e-06   0.44568028   0.02373348            0    0.4219468    1.5287987     1.974479    1.5692761 
 2155000    1.0242137 -3.4598283e-05    0.4441226   0.03086082            0   0.41326178    1.4979125    1.9420351   -1.6008291 
 2160000   0.97480071 -2.3592973e-05   0.49157523   0.01727557            0   0.47429966     1.425646    1.9172213  -0.49869914 
 2165000   0.91940189 -1.3869938e-05     0.566378 0.0021105037            0   0.56426749    1.3446253    1.9110033   0.49072164 
 2170000    1.0205323 1.0167988e-05    0.4504037 0.0085080095            0   0.44189569    1.4925284    1.9429321    2.9841341 
 2175000    1.0916406 3.9037467e-05   0.38601337  0.018733569            0    0.3672798    1.5965243    1.9825377    5.9799743 
 2180000     1.081599 7.9697923e-05   0.40417421  0.020878968            0   0.38329524    1.5818386    1.9860128     10.14708 
 2185000   0.96535634 9.9087432e-05   0.59039678  0.012176566            0   0.57822021    1.4118336    2.0022304    12.148783 
 2190000     1.038081 0.00010004785   0.46043416   0.03409705            0   0.42633711    1.5181935    1.9786276    12.223527 
 2195000    1.0446597 5.4634113e-05   0.47360154  0.024127849            0   0.44947369    1.5278148    2.0014164    7.5959495 
 2200000    1.1648538 -2.2580374e-06   0.32515472  0.022627243            0   0.30252748    1.7035987    2.0287534    1.7975304 
 2205000    1.0005378 4.0078296e-05   0.60283237 0.0084957924            0   0.59433658    1.4632865    2.0661188    6.1701364 
 2210000    1.0772894 1.4806042e-05   0.45222176  0.032631953            0   0.41958981    1.5755358    2.0277576    3.5438963 
 2215000    1.0698637 -1.6179849e-05   0.49909537  0.034426801            0   0.46466856    1.5646757     2.063771    0.4069545 
 2220000    1.0639525 4.4732833e-05   0.49933032  0.052073725            0   0.44725659    1.5560306    2.0553609     6.636003 
 2225000   0.99174805 4.2582946e-05   0.57089586  0.065319959            0   0.50557591    1.4504315    2.0213274     6.381821 
 2230000    1.0291665 6.3167675e-05   0.45854313  0.037675333            0    0.4208678    1.5051559    1.9636991     8.432069 
 2235000    1.0725496 2.8914986e-05   0.41306734  0.042458694            0   0.37060865    1.5686038    1.9816712    4.9425658 
 2240000    1.0457554 7.416278e-05   0.43827929  0.017303327            0   0.42097596    1.5294173    1.9676965    9.5619652 
 2245000    1.0921523 -7.8612145e-07   0.38102565 0.0063763244            0   0.37464933    1.5972727    1.9782984    1.8977995 
 2250000     1.115397 -2.3206993e-05   0.35904458 0.00042740848            0   0.35861717    1.6312681    1.9903127  -0.38608338 
 2255000    1.1122054 -5.204041e-05     0.408431            0            0     0.408431    1.6266004    2.0350314   -3.2939066 
 2260000    1.1595682 -4.4055305e-05   0.38474734 0.00091665368            0   0.38383069    1.6958685    2.0806158   -2.4306475 
 2265000    1.1316274 1.4566103e-05   0.38356983  0.021901498            0   0.36166834    1.6550051     2.038575    3.5301439 
 2270000    1.0412115 7.6829171e-05   0.47926304  0.030695527            0   0.44856752    1.5227718    2.0020348    9.8693419 
 2275000     1.065454 7.9222142e-05   0.46719808  0.015107989            0    0.4520901    1.5582265    2.0254246    10.137772 
 2280000    1.0505354 6.1593209e-05    0.5058237  0.015542912            0   0.49028079    1.5364081    2.0422318    8.3493764 
 2285000    1.0859641 4.0997067e-05   0.47359184  0.058304563            0   0.41528728    1.5882224    2.0618143     6.259914 
 2290000    1.1197516 -8.5710535e-05   0.39311192  0.053441384            0   0.33967053    1.6376367    2.0307486   -6.7460102 
 2295000     1.061516 -8.1717647e-05   0.47101869  0.014397717            0   0.45662097    1.5524671    2.0234858   -6.3444012 
 2300000    1.0386556 -4.134154e-05   0.47836438 0.0022897409            0   0.47607464    1.5190338    1.9973982   -2.2359756 
 2305000   0.97451408 4.2099143e-05   0.51471319 0.00032529727            0    0.5143879    1.4252268      1.93994    6.2508922 
 2310000    1.0493197 6.6494751e-05   0.41846437 0.0009531519            0   0.41751121      1.53463    1.9530944    8.7621569 
 2315000    1.1420581 -1.4831373e-05    0.3112039 0.0038924712            0   0.30731143      1.67026    1.9814639   0.46273129 
 2320000    1.0405429 -7.1688593e-05   0.42589033  0.010851169            0   0.41503916     1.521794    1.9476843   -5.3932276 
 2325000    1.1022262 -5.8430284e-05   0.39115331   0.01014193            0   0.38101138    1.6120058    2.0031591    -3.980102 
 2330000    1.0845563 2.7003471e-05   0.43719966 0.0043151712            0   0.43288449    1.5861635    2.0233632    4.7885186 
 2335000    1.0967707 1.5869842e-05   0.42478843   0.11342391            0   0.31136452    1.6040271    2.0288156    3.6538874 
 2340000    1.1767997 8.8853291e-06   0.30763887 0.0028132095            0   0.30482566    1.7210696    2.0287084    2.9385661 
 2345000    1.1070702 3.2858462e-05   0.39787198            0            0   0.39787198    1.6190901    2.0169621    5.3816686 
 2350000    1.0604271 3.0750081e-05   0.46414009            0            0   0.46414009    1.5508747    2.0150148     5.163823 
 2355000    1.0614625 9.0569457e-06   0.48241919            0            0   0.48241919    1.5523889    2.0348081    2.9622393 
 2360000    1.1092161 1.088954e-05   0.38828791 1.0280675e-05            0   0.38827762    1.6222285    2.0105164    3.1256054 
 2365000    1.1298865 7.0831936e-05   0.35666966 0.0016541435            0   0.35501552     1.652459    2.0091287    9.2623189 
 2370000    1.0641841 4.1535674e-05   0.42724313  0.031051271            0   0.39619186    1.5563693    1.9836124    6.2368654 
 2375000   0.90257589 4.8772219e-05   0.68873198  0.077657531            0   0.61107445    1.3200172    2.0087492    7.0030245 
 2380000   0.96593853 0.00010770184   0.58032345  0.045999346            0    0.5343241    1.4126851    1.9930086    13.021677 
 2385000   0.95404282 5.0118935e-05   0.62787712  0.028288388            0   0.59958873    1.3952876    2.0231647    7.1553437 
 2390000   0.97117783 8.7693194e-05   0.57045572 0.0073695728            0   0.56308615    1.4203476    1.9908033    10.970586 
 2395000    1.0438831 4.8239727e-05   0.49532215 0.0044934315            0   0.49082872     1.526679    2.0220011    6.9617492 
 2400000    1.0530062 -3.3713563e-05   0.47697098  0.013714504            0   0.46325647    1.5400215    2.0169925   -1.4352763 
 2405000      1.00247 -3.9704016e-05   0.62292525  0.051909792            0   0.57101545    1.4661124    2.0890377   -1.9766536 
 2410000    1.0473978 -7.4597246e-05   0.55367755  0.062056187            0   0.49162136    1.5318193    2.0854969   -5.5532611 
 2415000    1.0189745 -4.4244637e-05   0.61566841  0.016896734            0   0.59877168    1.4902502    2.1059186   -2.4247322 
 2420000    1.1762631 7.4704321e-06   0.39406584    0.0163749            0   0.37769094    1.7202848    2.1143506    2.8793229 
 2425000    1.1252353 4.1184504e-05   0.49067932  0.038638463            0   0.45204086    1.6456566    2.1363359    6.3536291 
 2430000     1.081615 3.8678922e-05   0.56767215  0.017558593            0   0.55011355     1.581862    2.1495341    6.1102558 
 2435000    1.1667816 -3.0704853e-05   0.48668566 0.0020302875            0   0.48465537     1.706418    2.1931037  -0.95107322 
 2440000    1.0278204 -8.5432273e-05   0.70524462  0.015783513            0    0.6894611    1.5031873     2.208432   -6.5398328 
 2445000    1.1809002 -4.1901609e-06   0.42760368  0.044362478            0    0.3832412    1.7270665    2.1546702    1.7255977 
 2450000    1.1905431 6.7916828e-05   0.47139856    0.0684214            0   0.40297716    1.7411693    2.2125678     9.167251 
 2455000    1.2577293 3.6225378e-05   0.40277845  0.030700826            0   0.37207762    1.8394291    2.2422075    5.9516863 
 2460000     1.081213 -7.1943905e-05   0.64819074 0.0026968502            0   0.64549389     1.581274    2.2294647   -5.1375911 
 2465000    1.1053269 -0.00011409056   0.62366324  0.009907916            0   0.61375533    1.6165406    2.2402038   -9.4426698 
 2470000    1.1547556 1.0305397e-05   0.53118001  0.053658608            0    0.4775214    1.6888301    2.2200101    3.2752828 
 2475000    1.2894079  2.21118e-05   0.34235483  0.021727018            0   0.32062781     1.885759    2.2281138    4.4923621 
 2480000    1.1953304 4.0928557e-05   0.52876509 0.0068868766            0   0.52187821    1.7481707    2.2769358    6.4680201 
 2485000    1.0378989 0.00011515145   0.69452103  0.006514844            0   0.68800619    1.5179271    2.2124481    14.003956 
 2490000    1.2921035 4.1417805e-05   0.29074389  0.004848306            0   0.28589559    1.8897014    2.1804453    6.4216285 
 2495000     1.164223 -0.00010704558   0.49643206 0.0016349015            0   0.49479716    1.7026761    2.1991081   -8.7623594 
 2500000    1.0982811 -8.9766141e-05   0.55074068 0.00017262958            0   0.55056805    1.6062362    2.1569768    -7.035076 
 2505000     1.195089 6.1513225e-05   0.45317058   0.01004848            0    0.4431221    1.7478177    2.2009882    8.4999425 
 2510000     1.042754 0.00011992254    0.6581615  0.052239748            0   0.60592175    1.5250277    2.1831892    14.463257 
 2515000    1.1013424 2.0355735e-05   0.58599022  0.031051628            0   0.55493859    1.6107132    2.1967035    4.2811307 
 2520000    1.0232141 -3.7866065e-05   0.62736641  0.026899848            0   0.60046657    1.4964506     2.123817   -1.7536681 
 2525000     1.093748 0.00010107392   0.52605583  0.042349371            0   0.48370646    1.5996065    2.1256623    12.475631 
 2530000    1.0539048 0.00011259469   0.57550122 0.0082531796            0   0.56724804    1.5413358     2.116837    13.646533 
 2535000    1.0679057 4.7408313e-05   0.52488562 0.0043244929            0   0.52056113    1.5618122    2.0866978     6.941309 
 2540000    1.0520042 3.3853573e-05   0.54100285 0.00049747889            0   0.54050537    1.5385561    2.0795589    5.5461648 
 2545000    1.1277841 8.4744866e-05   0.39631162            0            0   0.39631162    1.6493842    2.0456958     10.72357 
 2550000   0.99890553 3.5591082e-05   0.56305511            0            0   0.56305511    1.4608993    2.0239544    5.6684812 
 2555000    1.0496693 -5.052382e-05   0.48957814            0            0   0.48957814    1.5351414    2.0247195   -3.1489196 
 2560000    1.1699714 -3.9133264e-06   0.34218172 0.0038852288            0   0.33829649    1.7110831    2.0532649    1.6525402 
 2565000    1.0204139 7.6320258e-05   0.57956294  0.018252996            0   0.56130994    1.4923553    2.0719183    9.8871127 
 2570000    1.1863517 -2.382124e-05   0.35526184  0.013462424            0   0.34179942    1.7350394    2.0903013  -0.34899371 
 2575000    1.1240359 -8.8509752e-05   0.42987152 0.0005175853            0   0.42935394    1.6439025     2.073774   -6.9896245 
 2580000    1.0490015 4.7921511e-05   0.59233321            0            0   0.59233321    1.5341647    2.1264979    7.0336606 
 2585000    1.1626819 -1.5341917e-05   0.42097199 0.00014049013            0    0.4208315    1.7004223    2.1213943   0.55038199 
 2590000    1.1513999 -2.8898655e-05   0.44506509 0.0099382716            0   0.43512682    1.6839224    2.1289874  -0.83023478 
 2595000    1.1063066 6.8316641e-05   0.47990216  0.046440293            0   0.43346187    1.6179734    2.0978756    9.0934996 
 2600000    1.0575477 1.6325131e-05   0.54429094  0.027606958            0   0.51668398    1.5466636    2.0909545    3.7626479 
 2605000    1.1765127 3.7011913e-05   0.39869109 0.0030481652            0   0.39564293    1.7206498    2.1193409    5.9093608 
 2610000    1.1556001 -6.2453012e-05    0.4577017  0.022974345            0   0.43472736    1.6900652    2.1477669   -4.2474215 
 2615000    1.1484761 -2.4628613e-05   0.55573595  0.029622031            0   0.52611392    1.6796463    2.2353823  -0.28658763 
 2620000    1.1962949 2.2966349e-05   0.45177666  0.021136446            0   0.43064021    1.7495813     2.201358    4.5531122 
 2625000    1.1506069 -1.0046863e-05    0.5468477  0.041296128            0   0.50555158    1.6827626    2.2296104    1.2008116 
 2630000    1.1583327 2.5984779e-05   0.60918077  0.027367705            0   0.58181307    1.6940616    2.3032424    4.9640837 
 2635000    1.1992573 -0.00012000981   0.60021115  0.050403718            0   0.54980743    1.7539138     2.354125   -9.9348797 
 2640000    1.1900028 -6.5466098e-05   0.58529811  0.024654768            0   0.56064334    1.7403791    2.3256772   -4.3780512 
 2645000    1.2085069 -4.6097679e-05   0.48499631   0.00473005            0   0.48026626    1.7674413    2.2524376   -2.4679647 
 2650000    1.2423377 6.7759677e-06   0.42314366 0.00031666724            0     0.422827    1.8169189    2.2400625    2.9339216 
 2655000    1.1933594 3.2923283e-05    0.4896556  0.011305416            0   0.47835019    1.7452881    2.2349438     5.606288 
 2660000     1.179989 4.9164072e-05   0.52467765  0.036375413            0   0.48830224     1.725734    2.2504116    7.2848125 
 2665000    1.1792474 0.00011886312   0.50277521  0.054411771            0   0.44836344    1.7246493    2.2274245    14.399008 
 2670000    1.1198646 3.8004003e-05   0.57601647  0.021854487            0   0.55416199    1.6378019    2.2138184    6.1054282 
 2675000     1.207461 8.2678649e-05   0.43901071 0.00041568902            0   0.43859502    1.7659118    2.2049225    10.671216 
 2680000    1.0955071 -2.2706594e-05   0.62743243  0.017266194            0   0.61016624    1.6021792    2.2296116 -0.095543596 
 2685000    1.2188046 -3.988295e-06   0.45478768   0.03376598            0    0.4210217    1.7825018    2.2372894     1.828888 
 2690000    1.2555321 1.5290854e-05   0.43185056  0.011112096            0   0.42073846    1.8362157    2.2680663    3.8338497 
 2695000    1.1318113 -7.9270696e-05   0.57820706 0.00097991642            0   0.57722714     1.655274    2.2334811   -5.8838382 
 2700000    1.2318667 -8.1925013e-05   0.44125467            0            0   0.44125467    1.8016051    2.2428598   -6.1462616 
 2705000    1.0884997 -1.5795717e-06    0.7014247            0            0    0.7014247    1.5919308    2.2933555    2.1316073 
 2710000    1.2423771 3.0480734e-06   0.44784707            0            0   0.44784707    1.8169766    2.2648236    2.5769463 
 2715000    1.0713799 -8.9799534e-05   0.68007949 0.0047444257            0   0.67533507     1.566893    2.2469725   -6.9484998 
 2720000    1.1058439 -0.000107515   0.64675694  0.024408978            0   0.62234796    1.6172967    2.2640536   -8.7454819 
 2725000      1.16343 -4.8444498e-05   0.57248823  0.030127553            0   0.54236067    1.7015164    2.2740046    -2.686712 
 2730000    1.0425403 -4.2085058e-05   0.73944351  0.031289861            0   0.70815365    1.5247152    2.2641587   -2.0453513 
 2735000    1.0937096 -4.437788e-05   0.67641603  0.020890535            0    0.6555255    1.5995503    2.2759664   -2.2683285 
 2740000    1.0372337 -4.1666045e-05   0.71066029  0.019990347            0   0.69066995    1.5169543    2.2276146   -2.0389884 
 2745000     1.095912 -5.4495864e-05   0.59606554 0.0028993076            0   0.59316623    1.6027712    2.1988368   -3.3815397 
 2750000    1.1666093 3.108289e-05   0.47176602 0.0024884617            0   0.46927756    1.7061661    2.1779321      5.36082 
 2755000    1.1144859 0.00013350262   0.51017785 0.0073350479            0    0.5028428    1.6299356    2.1401135    15.810782 
 2760000    1.0494397 5.2820392e-05   0.61110945 0.0037420435            0    0.6073674    1.5348056    2.1459151    7.5547233 
 2765000    1.0836331 -5.6440288e-05   0.56174257 0.0099467552            0   0.55179582    1.5848135     2.146556   -3.6329294 
 2770000     1.060672 -4.3767935e-05   0.58356076  0.038188304            0   0.54537246    1.5512327    2.1347935    -2.347043 
 2775000    1.1191926 2.3229475e-05   0.55107629  0.028765065            0   0.52231123    1.6368192    2.1878955    4.5665937 
 2780000    1.1354394 0.00010377037   0.50148772  0.037212251            0   0.46427547    1.6605801    2.1620679    12.788154 
 2785000    1.1496783 -1.9278852e-05   0.50074293  0.026686432            0    0.4740565    1.6814046    2.1821475    0.2079931 
 2790000    1.0846368 -0.00010941658   0.61167986 0.0062365704            0   0.60544329    1.5862814    2.1979613   -9.0062962 
 2795000    1.0148646 -4.8122448e-05   0.68233257  0.013604394            0   0.66872818    1.4842395    2.1665721   -2.7611665 
 2800000    1.0849115 -3.666251e-06   0.54739827   0.02508788            0   0.52231039     1.586683    2.1340813    1.7586572 
 2805000    1.0764782 5.3380646e-05    0.5536322 0.0037694943            0    0.5498627    1.5743493    2.1279815    7.5941597 
 2810000    1.0478273 9.3491563e-05   0.58945409 0.0018188791            0   0.58763522    1.5324475    2.1219015    11.695438 
 2815000    1.0628556 5.3776214e-05   0.55259694 0.0049342062            0   0.54766273    1.5544263    2.1070232    7.6137075 
 2820000    1.1697426 -1.8425532e-06    0.4033594 0.0079360251            0   0.39542337    1.7107485    2.1141079    1.9254304 
 2825000    1.0609725 -5.979868e-05    0.5656158 0.0057625213            0   0.55985327    1.5516723    2.1172881   -4.0060967 
 2830000    1.0018063 -4.1766815e-05   0.62947519 0.0020906371            0   0.62738455    1.4651417    2.0946169   -2.1823049 
 2835000    1.2080783 5.7784342e-05   0.34330268 0.00023363856            0   0.34306904    1.7668145    2.1101172    8.0272338 
 2840000     1.124589 2.0165396e-05   0.48862054 0.0031874885            0   0.48543305    1.6447114     2.133332    4.1982686 
 2845000    1.0943329 6.9440779e-06    0.5283468  0.010457898            0   0.51788891    1.6004619    2.1288087    2.8398822 
 2850000    1.1108357 4.6243395e-05   0.50792964 0.0058832571            0   0.50204638    1.6245971    2.1325268    6.8678504 
 2855000    1.1134165 3.9489031e-05   0.46694984 0.0071485926            0   0.45980125    1.6283716    2.0953215    6.1389982 
 2860000    1.1403215 2.0919713e-05   0.40422112 0.0054410276            0   0.39878009    1.6677202    2.0719414      4.21412 
 2865000    1.0287917 -5.4610636e-05   0.53923359 0.00040152486            0   0.53883206    1.5046079    2.0438415   -3.5482876 
 2870000   0.89822928 -6.1555369e-05   0.68898214            0            0   0.68898214    1.3136603    2.0026425   -4.3006273 
 2875000    1.0932634 -4.7362644e-05    0.4502915 0.00043288563            0   0.44985861    1.5988977    2.0491892   -2.8007456 
 2880000    1.1516921 -4.7018844e-05   0.35959814 0.0016731601            0   0.35792498    1.6843496    2.0439478   -2.7707819 
 2885000    1.0185895 2.4612972e-05   0.50215385 0.0060068895            0   0.49614696    1.4896872     1.991841    4.5122094 
 2890000   0.95988649 6.0933175e-06   0.60107875  0.013682549            0   0.58739621     1.403834    2.0049127    2.6288685 
 2895000    1.0246134 -4.3469212e-05   0.45689891  0.023884026            0   0.43301489    1.4984972    1.9553961   -2.4958513 
 2900000    1.0600896 -7.0222793e-06   0.38397316  0.017947598            0   0.36602557     1.550381    1.9343542    1.2152728 
 2905000    1.0100331 6.222978e-05   0.43996119 0.0036158928            0    0.4363453    1.4771733    1.9171345     8.289464 
 2910000   0.81362908 2.997195e-05   0.70332679 0.00014773544            0   0.70317905    1.1899325    1.8932593     4.962387 
 2915000   0.93302937 -4.7736508e-05   0.52166635            0            0   0.52166635    1.3645555    1.8862218   -3.0019966 
 2920000    1.0012908 -5.4151669e-05   0.42014827 0.0027500158            0   0.41739826    1.4643878     1.884536   -3.6605948 
 2925000   0.94292573 -6.0910465e-05   0.49586301  0.018132447            0   0.47773056    1.3790289    1.8748919   -4.3623397 
 2930000   0.87327703 -3.5505152e-05   0.59963188  0.019992891            0   0.57963899    1.2771676    1.8767995    -1.758928 
 2935000   0.98667362 -4.9327097e-05   0.49756607   0.01125198            0   0.48631409    1.4430102    1.9405762   -3.1105185 
 2940000     1.068217 -2.6024268e-05   0.35979643 0.0050085067            0   0.35478792    1.5622674    1.9220638  -0.74282121 
 2945000   0.93852951 5.9381828e-05    0.5477753 0.0084433726            0   0.53933193    1.3725994    1.9203747    8.0010739 
 2950000   0.97388313 2.4047176e-05   0.49355103  0.013110417            0   0.48044061    1.4243041    1.9178551    4.3802859 
 2955000    1.0191143 -3.5867021e-05   0.46871415  0.010636813            0   0.45807733    1.4904547    1.9591688   -1.7136142 
 2960000   0.99987634  -4.0851e-06   0.45884856  0.024282346            0   0.43456621    1.4623191    1.9211677    1.5028535 
 2965000   0.94642253 1.5993878e-05   0.52396843  0.034721253            0   0.48924717    1.3841429    1.9081114    3.5458845 
 2970000   0.97928775 -2.2136428e-05   0.48849367  0.028302307            0   0.46019137    1.4322083     1.920702  -0.34606819 
 2975000   0.92985538 -2.7181497e-05   0.59538437  0.022557661            0    0.5728267    1.3599135    1.9552979  -0.82808739 
 2980000    1.0323092 -8.9887019e-07   0.42250403   0.02954082            0   0.39296321    1.5097522    1.9322562    1.8402119 
 2985000    1.0256363 1.346246e-05   0.45770612  0.031845003            0   0.42586112     1.499993    1.9576992    3.3362551 
 2990000   0.95478191 -6.4595905e-06   0.57711102  0.020184393            0   0.55692662    1.3963685    1.9734796    1.3120175 
 2995000   0.89767282 -8.0795419e-05   0.67171382   0.10188805            0   0.56982577    1.3128465    1.9845603   -6.2888906 
[...]
19285000   0.92194704 0.00010560719   0.61906829  0.012990758            0   0.60607753    1.3483475    1.9674158    12.781592 
19290000   0.95029619 9.033374e-05   0.58314456  0.027319533            0   0.55582503    1.3898082    1.9729527    11.223128 
19295000    1.0020328 0.00013187046   0.52903491  0.014869669            0   0.51416524    1.4654729    1.9945078    15.498043 
19300000    1.0810297 2.1047398e-05   0.39451461  0.007415734            0   0.38709888    1.5810059    1.9755206    4.1307741 
19305000   0.96194075 -1.4544121e-05   0.61669291  0.034412477            0   0.58228043    1.4068384    2.0235313   0.53421329 
19310000   0.93794379 -7.9239394e-06   0.60941121  0.071032372            0   0.53837884    1.3717428     1.981154    1.1697426 
19315000   0.88990752 -5.1473436e-05   0.66211847  0.083737843            0   0.57838063    1.3014897    1.9636082   -3.3072716 
19320000   0.94195733 2.697428e-05   0.58494318   0.02486794            0   0.56007524    1.3776126    1.9625558    4.7247221 
19325000   0.96304753 -7.2652371e-06   0.57269303  0.027755548            0   0.54493748     1.408457      1.98115    1.2371898 
19330000    1.1052367 1.3274515e-05   0.36715584  0.020154493            0   0.34700134    1.6164086    1.9835644    3.3428748 
19335000   0.92612339 -3.6638916e-05   0.61111524 0.0021876792            0   0.60892757    1.3544555    1.9655707   -1.7862543 
19340000     0.935645 -4.7841401e-06    0.6109795 0.00093449683            0     0.610045    1.3683808    1.9793603    1.4894644 
19345000   0.96534606 -4.6269656e-05   0.55303791 0.0093022675            0   0.54373564    1.4118186    1.9648565   -2.7731563 
19350000   0.96438237 -8.36208e-06   0.52826653  0.016011402            0   0.51225513    1.4104092    1.9386758    1.0823988 
19355000   0.93902256 2.0322697e-05   0.58309105  0.012416762            0   0.57067429    1.3733205    1.9564115    4.0374558 
19360000   0.90975523 -7.5295218e-05   0.64524218  0.010575684            0    0.6346665     1.330517    1.9757592   -5.7344712 
19365000   0.96570099 -1.3475371e-05   0.53112309 0.0050436407            0   0.52607945    1.4123377    1.9434608   0.56358275 
19370000     1.016424 -7.5681121e-05   0.44465233  0.010158972            0   0.43449335      1.48652    1.9311724   -5.8185745 
19375000   0.86500484 -2.819141e-05   0.61946733   0.01575884            0   0.60370849    1.2650696    1.8845369   -1.0022635 
19380000   0.85309565 -6.4670265e-05   0.62479289 0.0026437783            0   0.62214911    1.2476524    1.8724453   -4.7497899 
19385000   0.93310134 -5.6321899e-05   0.52563667            0            0   0.52563667    1.3646607    1.8902974    -3.877065 
19390000   0.88107588 -1.6503407e-05   0.55659288            0            0   0.55659288    1.2885735    1.8451663   0.15521749 
19395000   0.88116836 -0.00013786402   0.52214986            0            0   0.52214986    1.2887087    1.8108586   -12.306417 
19400000   0.84066206 -6.0092541e-05   0.55641342            0            0   0.55641342    1.2294683    1.7858817   -4.3675945 
19405000   0.84949632 3.0507776e-05   0.55019931 0.0047823009            0   0.54541701    1.2423884    1.7925877    4.9165839 
19410000   0.86366667 0.00011182341   0.49004318 0.0098962789            0    0.4801469    1.2631125    1.7531557    13.203873 
19415000   0.88306664 1.5415325e-05   0.46071009 0.0031000666            0   0.45761002     1.291485     1.752195    3.3307244 
19420000   0.80997476 3.0367757e-05   0.60472071 0.0032284362            0   0.60149228    1.1845881    1.7893088    4.8989671 
19425000   0.75457516 9.7073224e-05   0.65934332   0.03636468            0   0.62297864    1.1035662    1.7629095    11.703208 
19430000   0.80856577 5.4332469e-05   0.59223984   0.04250269            0   0.54973715    1.1825274    1.7747673    7.3384121 
19435000   0.87174524 -4.5168101e-05   0.48203544  0.012981761            0   0.46905368    1.2749274    1.7569629   -2.8682507 
19440000   0.87979964 1.5802932e-05   0.45770171 0.0020614591            0   0.45564026     1.286707    1.7444087    3.3626289 
19445000   0.89146219 -3.7187764e-05   0.48072507 8.0501472e-05            0   0.48064457    1.3037635    1.7844885   -2.0235385 
19450000   0.85072586 -2.1317061e-05   0.50592598            0            0   0.50592598    1.2441866    1.7501126  -0.43275452 
19455000   0.84744634 5.0147257e-05   0.48114211            0            0   0.48114211    1.2393903    1.7205324    6.8556115 
19460000   0.93289799 6.0443285e-05     0.390303            0            0     0.390303    1.3643633    1.7546663    7.9440587 
19465000   0.81120622 -8.4305657e-06   0.57113354            0            0   0.57113354    1.1863891    1.7575226   0.89423271 
19470000   0.78917509 -8.4458637e-06    0.5156348            0            0    0.5156348    1.1541686    1.6698034   0.80494692 
19475000     0.896579 1.3221034e-05   0.39521893 0.0007304835            0   0.39448845    1.3112468    1.7064657    3.0602996 
19480000   0.85849935 -2.4738457e-06    0.4349525 0.0059194955            0   0.42903301    1.2555553    1.6905078     1.437186 
19485000   0.85988858 -3.7762283e-05   0.46736425  0.032623183            0   0.43474106     1.257587    1.7249513   -2.1419065 
19490000   0.75278236 -8.1846822e-05   0.62845128  0.031545785            0    0.5969055    1.1009442    1.7293955   -6.6517191 
19495000   0.85480197 6.0489495e-05   0.44176996 0.0020571792            0   0.43971279    1.2501479    1.6919178    7.8860421 
19500000   0.78344442 5.1179017e-05   0.57040801 0.00096743308            0   0.56944058    1.1457875    1.7161955    6.9569269 
19505000   0.84086911 7.1453214e-05   0.49917601 0.0012128436            0   0.49796317    1.2297711    1.7289471    9.0457562 
19510000   0.88346109 1.3806825e-05   0.47474767 0.0002039134            0   0.47454376    1.2920618    1.7668095    3.1806284 
19515000   0.90470692 -1.5277166e-05   0.43338419            0            0   0.43338419    1.3231339    1.7565181   0.19213629 
19520000   0.88161168 -3.9847738e-05   0.49321293            0            0   0.49321293    1.2893571      1.78257   -2.2978383 
19525000   0.92294957 4.9820838e-05    0.4047264 0.00053142167            0   0.40419497    1.3498137    1.7545401    6.8561939 
19530000   0.78570711 1.9323653e-05   0.61524153  0.026711739            0   0.58852979    1.1490967    1.7643382    3.7430802 
19535000   0.87903361 -1.2815174e-05   0.49325877  0.036215153            0   0.45704362    1.2855867    1.7788454   0.46657157 
19540000   0.83150396 -1.8491639e-05   0.52834908 0.0087552737            0   0.51959381    1.2160745    1.7444236  -0.14912021 
19545000   0.83088694 -2.9244031e-05   0.52728084 0.0045383398            0    0.5227425    1.2151722     1.742453   -1.2521358 
19550000   0.94191561 4.6542731e-05   0.36546257 0.0044304614            0   0.36103211    1.3775516    1.7430141    6.5089898 
19555000   0.88095542 -9.716206e-06   0.40966507  0.030525537            0   0.37913954    1.2883973    1.6980624   0.70312288 
19560000   0.84941738 5.7810563e-05   0.45312033  0.019124915            0   0.43399542    1.2422729    1.6953932    7.6151949 
19565000   0.82167861 2.0970529e-06   0.50472953 0.0057866345            0    0.4989429     1.201705    1.7064345    1.9211727 
19570000   0.78793746 -5.8194053e-05   0.55368508  0.006271627            0   0.54741345    1.1523585    1.7060436   -4.2530274 
19575000   0.76752189 -4.6347405e-05   0.59490619  0.006205942            0   0.58870025    1.1225008     1.717407   -3.0285673 
19580000   0.78044173 -7.2595568e-06   0.58375729  0.041069428            0   0.54268786     1.141396    1.7251533   0.98177471 
19585000   0.84040096 -2.3085185e-06   0.50001833  0.023727932            0    0.4762904    1.2290864    1.7291047    1.4927125 
19590000   0.89038636 -8.6590311e-05   0.44764875 0.0043051023            0   0.44334365      1.30219    1.7498388    -7.117009 
19595000   0.81745664 -1.0779495e-05   0.52007297 0.0027415417            0   0.51733143    1.1955303    1.7156033   0.61178301 
19600000    0.8824777 -2.5731219e-05   0.44123501 0.00040176848            0   0.44083324    1.2906236    1.7318586  -0.90301814 
19605000   0.79049947 0.00012948964   0.57834949 0.0070424934            0   0.57130699    1.1561055     1.734455    14.994194 
19610000   0.88324507 7.3471301e-06   0.42074254  0.017220002            0   0.40352254    1.2917459    1.7124885    2.4648346 
19615000   0.88010675 4.6227192e-05   0.41976463  0.010064728            0    0.4096999    1.2871561    1.7069207    6.4405853 
19620000   0.78863344 7.8376413e-05   0.56194158  0.013459896            0   0.54848168    1.1533764     1.715318    9.7410627 
19625000   0.96765784 5.6998872e-06   0.29501673 0.0078158142            0   0.28720092    1.4151996    1.7102163    2.2938848 
19630000   0.95492766 -4.5464295e-05   0.37482044 0.0048989371            0    0.3699215    1.3965817    1.7714021   -2.8841416 
19635000   0.86192235 6.5796945e-05     0.528591 0.00043193434            0   0.52815907    1.2605614    1.7891524    8.5267596 
19640000   0.90066699 -6.8195613e-05   0.47291644 0.0071746586            0   0.46574179    1.3172255    1.7901419   -5.1930888 
19645000   0.87537709 6.0883296e-06   0.51372178  0.036544013            0   0.47717776     1.280239    1.7939608    2.4174057 
19650000   0.85956003 1.0304639e-05   0.54157629  0.027415837            0   0.51416045    1.2571065    1.7986828    2.8538779 
19655000   0.87119261 -5.3446285e-06    0.4993703 0.00076570232            0    0.4986046    1.2741192    1.7734895    1.2261995 
19660000   0.83069065 5.8429601e-05   0.53404909 0.0028732997            0   0.53117579    1.2148851    1.7489342    7.7321253 
19665000   0.85111779 -1.4978075e-05   0.49652553 0.0057288306            0    0.4907967    1.2447598    1.7412853   0.20753044 
19670000   0.86749938 -8.2329662e-05   0.45938058 0.0056449108            0   0.45373567    1.2687178    1.7280984    -6.702459 
19675000   0.79972595 -4.5526794e-05   0.53891677  0.015373839            0   0.52354293    1.1695992     1.708516   -2.9534278 
19680000   0.79305408 1.5340171e-05   0.53741788 0.0092404803            0    0.5281774    1.1598416    1.6972595     3.268093 
19685000    0.8610952 8.028377e-05   0.44382654  0.024841896            0   0.41898465    1.2593517    1.7031783    9.9242363 
19690000    0.8763156 0.00010994396   0.43889365  0.068925125            0   0.36996853    1.2816116    1.7205052    12.978767 
19695000   0.86826048 -6.3947083e-05   0.46696218  0.031578819            0   0.43538336    1.2698309    1.7367931   -4.8113882 
19700000   0.81411014 -0.00015207927   0.54749312  0.018018055            0   0.52947507    1.1906361    1.7381292   -13.834788 
19705000   0.92466256 3.4652045e-05    0.4213558  0.013219177            0   0.40813663     1.352319    1.7736748    5.3220443 
19710000    0.9274864 0.00012542064   0.41593264  0.014957739            0    0.4009749    1.3564489    1.7723815    14.615455 
19715000   0.75425628 1.8601868e-05   0.61649745  0.030869918            0   0.58562753    1.1030998    1.7195973    3.6244285 
19720000   0.93427772 9.7950916e-06   0.38216938  0.043109457            0   0.33905993    1.3663812    1.7485505    2.7515679 
19725000   0.88144263 2.6328426e-05   0.45010054  0.014261865            0   0.43583867    1.2891098    1.7392104    4.4352412 
19730000   0.74065813 3.6651126e-05   0.64806871 0.00022179502            0   0.64784691    1.0832125    1.7312812    5.4843565 
19735000   0.87011087 1.085147e-05   0.46383578  0.014883127            0   0.44895266    1.2725371    1.7363729    2.8475635 
19740000   0.83984447 5.6017015e-06   0.48300713  0.022167926            0    0.4608392    1.2282725    1.7112797    2.2848939 
19745000   0.86995971 1.3379285e-05   0.42828117 0.0039190897            0   0.42436208    1.2723161    1.7005972     3.070636 
19750000   0.73506666 -1.5418987e-05   0.59778273 0.0010251783            0   0.59675755     1.075035    1.6728177  0.093913454 
19755000    0.8106326 -2.3138843e-05   0.53811048 0.00014981693            0   0.53796067    1.1855502    1.7236607  -0.64575687 
19760000   0.95470373 -8.4000187e-06   0.32825846  0.010125607            0   0.31813285    1.3962542    1.7245127   0.86435075 
19765000   0.86386787 6.1395776e-06   0.43181085  0.025935922            0   0.40587493    1.2634068    1.6952176    2.3239104 
19770000   0.79623909 5.514722e-05   0.57369446  0.030475117            0   0.54321934    1.1644997    1.7381941    7.3852694 
19775000   0.84609581 5.5638569e-05   0.47694982  0.034303746            0   0.44264608    1.2374151    1.7143649    7.4117544 
19780000   0.90195345 3.6826196e-06   0.38172775 0.0039898565            0   0.37773789    1.3191069    1.7008347    2.0779349 
19785000   0.84288161 -6.3817135e-05   0.47369016  0.020176584            0   0.45351357    1.2327144    1.7064045   -4.8284701 
19790000   0.78987202 -4.3094455e-05    0.5703859  0.041732688            0   0.52865321    1.1551878    1.7255737   -2.6872985 
19795000   0.78823832 7.2394258e-05    0.5832804  0.014355707            0   0.56892469    1.1527985    1.7360789    9.1492509 
19800000   0.92639178 5.6303845e-05   0.41235287 0.0024814141            0   0.40987145     1.354848    1.7672008    7.5327145 
19805000   0.86168242 -6.7706378e-06   0.54378113 0.0029805175            0   0.54080061    1.2602105    1.8039917    1.1106784 
19810000   0.86754655 2.2957771e-05   0.54873112  0.024309132            0   0.52442199    1.2687868     1.817518    4.1683937 
19815000   0.91702595 5.1435466e-05   0.50249906  0.024271691            0   0.47822737    1.3411504    1.8436495    7.1106412 
19820000   0.87062361 -8.6133945e-06   0.53681482  0.028363762            0   0.50845106     1.273287    1.8101018   0.92809025 
19825000   0.77521734 -3.4847222e-05   0.64847028   0.04952879            0   0.59894149    1.1337554    1.7822256   -1.7861299 
19830000   0.80590754 1.410096e-06   0.61000421  0.039859303            0   0.57014491    1.1786398     1.788644    1.9330378 
19835000   0.88092165 5.078825e-06   0.51022608  0.015592615            0   0.49463346    1.2883479     1.798574    2.3186457 
19840000   0.81009999 6.0227204e-05   0.62181822  0.006727689            0   0.61509053    1.1847712    1.8065895    7.9738551 
19845000   0.80801484 0.00013368209   0.64342763  0.060190767            0   0.58323686    1.1817217    1.8251493    15.514195 
19850000   0.95148495  7.06206e-05   0.43009355  0.054531679            0   0.37556187    1.3915467    1.8216403    9.0531897 
19855000   0.87951227 2.2049112e-05   0.53424017  0.092831696            0   0.44140847    1.2862867    1.8205269    4.0783559 
19860000   0.77430696 6.4086796e-05   0.71309481    0.1056185            0   0.60747631    1.1324239    1.8455187    8.4080066 
19865000   0.97950676 1.706926e-06   0.40564066 0.0092046902            0   0.39643597    1.4325286    1.8381693    2.0129585 
19870000   0.95434045 -7.1424853e-05    0.4173127 2.1808041e-05            0    0.4172909    1.3957229    1.8130356   -5.5008693 
19875000   0.94355371 2.213581e-06   0.43689941 1.2242833e-05            0   0.43688717    1.3799473    1.8168467    2.0435174 
19880000    0.7970601 5.0437425e-05   0.60806481            0            0   0.60806481    1.1657004    1.7737652    6.9385575 
19885000    0.8592842 -1.3916031e-05   0.50484236            0            0   0.50484236    1.2567031    1.7615455    0.3365439 
19890000   0.95407751 2.4115374e-05   0.38953361 0.00075579639            0   0.38877781    1.3953384     1.784872    4.2542862 
19895000    0.8144307 8.0571486e-05   0.61552516  0.014056412            0   0.60146875    1.1911049    1.8066301     10.05715 
19900000   0.88739908 -3.736189e-05   0.52166563  0.016114126            0    0.5055515    1.2978212    1.8194868   -2.0063708 
19905000   0.92560992 -8.5323722e-05   0.46545437  0.013055068            0    0.4523993    1.3537045    1.8191589   -6.9179903 
19910000   0.87795343 6.9193368e-05   0.53808879  0.013292762            0   0.52479603    1.2840069    1.8220957    8.9074966 
19915000   0.83506055 0.00012967289   0.62363844 0.0061126465            0    0.6175258    1.2212761    1.8449145    15.123418 
19920000    1.0085138 2.7671402e-05   0.35952414 0.0054632291            0   0.35406091    1.4749514    1.8344755    4.6680271 
19925000   0.96123239 3.5405719e-06   0.39301296  0.013096963            0   0.37991599    1.4058024    1.7988153    2.1613699 
19930000   0.81037764 1.0528694e-05   0.63780518   0.01479082            0   0.62301436    1.1851773    1.8229825    2.9011207 
19935000   0.80852291 -7.6760831e-05   0.61075726   0.03942307            0   0.57133419    1.1824648     1.793222   -6.0670871 
19940000   0.84304453 -0.00010147474   0.55711977   0.03849145            0   0.51862832    1.2329526    1.7900724   -8.6009409 
19945000   0.89848062 4.0940348e-05   0.50579144  0.011589469            0   0.49420197    1.3140279    1.8198193     6.012111 
19950000   0.91695265 7.1870287e-05   0.51250488  0.023100054            0   0.48940482    1.3410432    1.8535481    9.2130655 
19955000   0.79033875 -1.6661539e-05   0.69848941  0.072565699            0   0.62592371    1.1558704    1.8543598   0.14821819 
19960000    1.0037499 -3.588436e-05   0.40964387  0.016363613            0   0.39328026    1.4679842    1.8776281   -1.7969305 
19965000    1.0550164 5.0609682e-05   0.36235104 0.00094101895            0   0.36141002    1.5429614    1.9053125     7.087744 
19970000    1.0030828 1.7444038e-05   0.45778915 0.0010270574            0   0.45676209    1.4670086    1.9247977    3.7110672 
19975000   0.86823348 -7.4011325e-05   0.68986775 0.0024711614            0   0.68739658    1.2697915    1.9596592   -5.6191005 
19980000    1.0619376 4.8217456e-05   0.38279872 0.0011117371            0   0.38168699    1.5530837    1.9358824    6.8733499 
19985000    0.9206599 2.306796e-05   0.59342891 0.00020575821            0   0.59322315    1.3464651     1.939894    4.3020531 
19990000   0.96703031 -5.5400271e-05    0.5865389 0.00059600654            0   0.58594289    1.4142818    2.0008207    -3.672167 
19995000    1.0485759 -7.8697541e-05    0.4313941 0.0010362065            0   0.43035789    1.5335423    1.9649364   -6.0936918 
20000000    1.0090298 2.3936315e-05   0.48245585 0.0011977809            0   0.48125807    1.4757061     1.958162    4.4092407 
Loop time of 128.449 on 1 procs for 20000000 steps with 40 atoms

Performance: 134528.531 tau/day, 155704.319 timesteps/s
99.4% CPU use with 1 MPI tasks x no OpenMP threads

MPI task timing breakdown:
Section |  min time  |  avg time  |  max time  |%varavg| %total
---------------------------------------------------------------
Pair    | 5.2846     | 5.2846     | 5.2846     |   0.0 |  4.11
Bond    | 12.74      | 12.74      | 12.74      |   0.0 |  9.92
Neigh   | 18.178     | 18.178     | 18.178     |   0.0 | 14.15
Comm    | 46.1       | 46.1       | 46.1       |   0.0 | 35.89
Output  | 0.32534    | 0.32534    | 0.32534    |   0.0 |  0.25
Modify  | 40.796     | 40.796     | 40.796     |   0.0 | 31.76
Other   |            | 5.025      |            |       |  3.91

Nlocal:        40.0000 ave          40 max          40 min
Histogram: 1 0 0 0 0 0 0 0 0 0
Nghost:        0.00000 ave           0 max           0 min
Histogram: 1 0 0 0 0 0 0 0 0 0
Neighs:        11.0000 ave          11 max          11 min
Histogram: 1 0 0 0 0 0 0 0 0 0

Total # of neighbors = 11
Ave neighs/atom = 0.275
Ave special neighs/atom = 5.7000000
Neighbor list builds = 3635
Dangerous builds = 0
write_restart restart.equil
System init for write_restart ...
WARNING: Communication cutoff 1.4200000000000002 is shorter than a bond length based estimate of 1.8. This may lead to errors. (../comm.cpp:667)
#--------------End of Input file ------------------
Total wall time: 0:02:08
