LAMMPS (29 Oct 2020)
###################### polyelectrolyte complexation ######################
clear

#Initialization
#------------------------------------
units				lj
dimension			3
atom_style			full
boundary			p p p

#Atom Definition
#-------------------------------------
read_data			data.complexation
Reading data file ...
  orthogonal box = (-80.000000 -80.000000 -80.000000) to (80.000000 80.000000 80.000000)
  1 by 1 by 1 MPI processor grid
  reading atoms ...
  80 atoms
  scanning bonds ...
  1 = max bonds/atom
  reading bonds ...
  79 bonds
Finding 1-2 1-3 1-4 neighbors ...
  special bond factors lj:    0.0      0.0      0.0     
  special bond factors coul:  0.0      0.0      0.0     
     2 = max # of 1-2 neighbors
     2 = max # of 1-3 neighbors
     4 = max # of 1-4 neighbors
     6 = max # of special neighbors
  special bonds CPU = 0.000 seconds
  read_data CPU = 0.002 seconds

#Force definition
#----------------------------------------------
#Bond definition
bond_style			harmonic
bond_coeff			1 5000 1
#Pair definition
special_bonds	lj 0 1 1
Finding 1-2 1-3 1-4 neighbors ...
  special bond factors lj:    0.0      1.0      1.0     
  special bond factors coul:  0.0      0.0      0.0     
     2 = max # of 1-2 neighbors
     2 = max # of 1-3 neighbors
     4 = max # of 1-4 neighbors
     6 = max # of special neighbors
  special bonds CPU = 0.000 seconds
pair_style		 lj/cut 1.12
pair_modify 		 shift yes
pair_coeff	1 1 1 1 1.12

#Timestep etc
#--------------------------------------------
timestep		1e-05
run_style		verlet
velocity		all	create	1	13

#Fix
#---------------------------------------
group polymers type 1
80 atoms in group polymers
fix 1 all nve
fix 2 all langevin 1	1	10	13
fix 3 polymers recenter INIT INIT INIT units box

#Dump
#------------------------------------------------
compute  1 all gyration
variable  myRg2 equal c_1
variable  i equal step
fix  mythermofile all print 5000 "$i ${myRg2}" file radius_of_gyration.dat screen no

thermo_style		 custom step temp press pe evdwl ecoul ebond ke etotal enthalpy
thermo 	5000
dump	3 all custom 5000 dump.lammpstrj id mol type xu yu zu
run		20000000
Neighbor list info ...
  update every 1 steps, delay 10 steps, check yes
  max neighbors/atom: 2000, page size: 100000
  master list distance cutoff = 1.42
  ghost atom cutoff = 1.42
  binsize = 0.71, bins = 226 226 226
  1 neighbor lists, perpetual/occasional/extra = 1 0 0
  (1) pair lj/cut, perpetual
      attributes: half, newton on
      pair build: half/bin/newton
      stencil: half/bin/3d/newton
      bin: standard
WARNING: Communication cutoff 1.4200000000000002 is shorter than a bond length based estimate of 1.8. This may lead to errors. (../comm.cpp:667)
Per MPI rank memory allocation (min/avg/max) = 54.71 | 54.71 | 54.71 Mbytes
Step Temp Press PotEng E_vdwl E_coul E_bond KinEng TotEng Enthalpy 
       0            1 1.9287109e-05            0            0            0            0      1.48125      1.48125      2.46875 
    5000   0.78559798 -0.00033058021   0.32702888            0            0   0.32702888     1.163667    1.4906959   -15.435011 
   10000   0.45762296 -0.00068391055   0.82880616            0            0   0.82880616     0.677854    1.5066602    -33.50956 
   15000   0.73761144 -0.00028768087   0.41233985            0            0   0.41233985    1.0925869    1.5049268   -13.224334 
   20000   0.74438525 -0.00014590528   0.39845609            0            0   0.39845609    1.1026207    1.5010767   -5.9692736 
   25000   0.60817523 -0.00042574146    0.6250064            0            0    0.6250064   0.90085956     1.525866   -20.272097 
   30000   0.70559042 -0.00033258096   0.47674102            0            0   0.47674102    1.0451558    1.5218968   -15.506248 
   35000   0.80302131 -0.00012841986   0.35010359            0            0   0.35010359    1.1894753    1.5395789    -5.035518 
   40000    0.8088788 -0.00022646442   0.34132283            0            0   0.34132283    1.1981517    1.5394745   -10.055504 
   45000   0.76338836 -0.00024221635   0.39651425            0            0   0.39651425     1.130769    1.5272833   -10.874194 
   50000   0.80508095 -6.9793124e-05   0.32538276            0            0   0.32538276    1.1925262    1.5179089    -2.055499 
   55000   0.80997635 -1.4549113e-05   0.31718981            0            0   0.31718981    1.1997775    1.5169673   0.77205271 
   60000   0.79700416 -1.1431637e-05   0.34031461            0            0   0.34031461    1.1805624     1.520877   0.93557721 
   65000   0.77390261 -0.00021032601   0.37724742            0            0   0.37724742    1.1463432    1.5235907    -9.245101 
   70000   0.80093046 -5.2703705e-05   0.34704428            0            0   0.34704428    1.1863782    1.5334225   -1.1650072 
   75000   0.82499049 0.00010249063    0.3214187            0            0    0.3214187    1.2220172    1.5434359    6.7909561 
   80000   0.80805559 -4.0299381e-06   0.36156582            0            0   0.36156582    1.1969323    1.5584982    1.3521653 
   85000   0.81357092 -0.00014889158   0.38233437            0            0   0.38233437    1.2051019    1.5874363   -6.0358128 
   90000   0.82589358 -9.1876205e-05   0.39022703            0            0   0.39022703    1.2233549    1.6135819   -3.0904798 
   95000   0.88679655 0.00016265915   0.31030723            0            0   0.31030723    1.3135674    1.6238746     9.952023 
  100000   0.86363924 7.324057e-05    0.3362062            0            0    0.3362062    1.2792656    1.6154718     5.365389 
  105000   0.81656563 -0.0001859533   0.40616708            0            0   0.40616708    1.2095378    1.6157049    -7.905104 
  110000   0.90910886 2.2348064e-05   0.28460376            0            0   0.28460376    1.3466175    1.6312213    2.7754422 
  115000   0.83616436 0.00017916589   0.38699967            0            0   0.38699967    1.2385685    1.6255681    10.798862 
  120000    0.8558032 -7.3952546e-05   0.37824053 4.4011235e-05            0   0.37819652    1.2676585     1.645899   -2.1404714 
  125000    0.8154251 -0.00021268639   0.44820103 0.00016497214            0   0.44803605    1.2078484    1.6560494   -9.2334938 
  130000   0.89948988 0.00018801956   0.33201176            0            0   0.33201176    1.3323694    1.6643811    11.290983 
  135000    0.8755847 5.1366153e-05   0.38380405 6.5529006e-07            0    0.3838034    1.2969598    1.6807639    4.3107109 
  140000   0.87249988 -0.00012662089   0.39573469 4.430839e-05            0   0.39569038    1.2923904    1.6881251   -4.7948645 
  145000   0.88282618 2.5065026e-06   0.40818803            0            0   0.40818803    1.3076863    1.7158743    1.8442072 
  150000   0.97581766 0.00011871138    0.2893603            0            0    0.2893603    1.4454299    1.7347902     7.812813 
  155000   0.90502125 -0.00014853842   0.38837894            0            0   0.38837894    1.3405627    1.7289417   -5.8762253 
  160000      0.86677 -6.2694507e-05   0.42146572            0            0   0.42146572    1.2839031    1.7053688     -1.50459 
  165000   0.90396263 8.9802479e-05   0.37384127            0            0   0.37384127    1.3389946    1.7128359    6.3107229 
  170000   0.92176056 -0.00011598967   0.34809492            0            0   0.34809492    1.3653578    1.7134527   -4.2252183 
  175000    0.9084641 -0.00013390376    0.3686347            0            0    0.3686347    1.3456624    1.7142971   -5.1415751 
  180000   0.91396072 0.0001979747   0.39979013            0            0   0.39979013    1.3538043    1.7535945    11.889899 
  185000   0.89621081 -0.00022380531   0.44264563            0            0   0.44264563    1.3275123    1.7701579   -9.6886738 
  190000   0.93167986 2.3135159e-05   0.40187859            0            0   0.40187859    1.3800508    1.7819294    2.9664495 
  195000    0.9623988 0.00019317025   0.36362856            0            0   0.36362856    1.4255532    1.7891818    11.679499 
  200000   0.93145017 -0.00024520107   0.39935805            0            0   0.39935805    1.3797106    1.7790686   -10.775226 
  205000   0.95560404 0.0002241195   0.37273463            0            0   0.37273463    1.4154885    1.7882231    13.263142 
  210000    0.9893612 -5.357367e-05   0.33353601            0            0   0.33353601    1.4654913    1.7990273  -0.94394461 
  215000    0.9011753 -8.892781e-05   0.41443095            0            0   0.41443095    1.3348659    1.7492969    -2.803807 
  220000   0.92539835 0.00016494946   0.39497791 0.00030358098            0   0.39467433    1.3707463    1.7657242    10.211137 
  225000   0.90609853 -0.00010684383   0.42481305 0.0090931117            0   0.41571993    1.3421584    1.7669715   -3.7034324 
  230000   0.89116905 2.8235502e-05   0.46469351   0.01201203            0   0.45268148    1.3200442    1.7847377    3.2303954 
  235000   0.94264611 2.813715e-05   0.41679975 0.00012491232            0   0.41667484    1.3962945    1.8130943    3.2537164 
  240000   0.91815847 -9.6094676e-05   0.48166693            0            0   0.48166693    1.3600222    1.8416892   -3.0783583 
  245000   0.95360141 0.00018712384    0.4104616            0            0    0.4104616    1.4125221    1.8229837    11.403724 
  250000   0.90044345 -0.00022210211   0.52220109            0            0   0.52220109    1.3337819     1.855983   -9.5156449 
  255000   0.95407804 0.00019003032   0.46434949            0            0   0.46434949    1.4132281    1.8775776     11.60713 
  260000    1.0534098 -0.00013042977    0.3313965            0            0    0.3313965    1.5603633    1.8917598   -4.7862446 
  265000     1.042422 3.6534944e-05   0.33080175            0            0   0.33080175    1.5440875    1.8748893    3.7454784 
  270000    0.9721256 0.00010301433   0.44582573            0            0   0.44582573     1.439961    1.8857868    7.1601203 
  275000   0.94371516 -0.00012106867   0.50809276            0            0   0.50809276    1.3978781    1.9059708   -4.2927452 
  280000   0.99007203 6.3322608e-05   0.43192698            0            0   0.43192698    1.4665442    1.8984712    5.1405887 
  285000   0.97779394 1.3658757e-05   0.45012227            0            0   0.45012227    1.4483573    1.8984795    2.5978079 
  290000   0.92683035 -0.00017525774   0.53389333            0            0   0.53389333    1.3728675    1.9067608   -7.0664357 
  295000   0.91423095 9.6480105e-05   0.53572766            0            0   0.53572766    1.3542046    1.8899323    6.8297137 
  300000    1.0328672 -5.5449958e-05   0.37802425            0            0   0.37802425    1.5299345    1.9079588  -0.93107909 
  305000    1.0213796 -4.5362656e-05    0.3712083            0            0    0.3712083    1.5129185    1.8841268  -0.43844122 
  310000   0.94286634 0.00018071192   0.47403634            0            0   0.47403634    1.3966208    1.8706571    11.123108 
  315000   0.91862049 -0.00013393592   0.48587388            0            0   0.48587388    1.3607066    1.8465805   -5.0109386 
  320000   0.93508295 0.00023937107   0.43638847            0            0   0.43638847    1.3850916    1.8214801    14.077279 
  325000   0.90814234 -0.00014648786   0.49634117            0            0   0.49634117    1.3451858     1.841527   -5.6586512 
  330000   0.95970995 -3.6434582e-05   0.43485268            0            0   0.43485268    1.4215704     1.856423 -0.0090275512 
  335000   0.92753857 3.3000891e-05   0.43453275            0            0   0.43453275    1.3739165    1.8084492    3.4980948 
  340000    0.9394599 -0.00010135032   0.40693106            0            0   0.40693106     1.391575     1.798506   -3.3906303 
  345000    0.9316207 9.1039997e-05   0.41780187            0            0   0.41780187    1.3799632     1.797765    6.4590129 
  350000   0.90953066 -1.7429465e-05   0.43982111 0.0010048931            0   0.43881622    1.3472423    1.7870634   0.89467478 
  355000   0.93837808 -4.9837214e-05    0.4161448 0.0040573152            0   0.41208748    1.3899725    1.8061173  -0.74554803 
  360000   0.95393541 0.00018587232   0.40445011 0.0032748326            0   0.40117527    1.4130168    1.8174669     11.33413 
  365000   0.88604806 -0.0001311841   0.49269193 0.00067184536            0   0.49202008    1.3124587    1.8051506   -4.9114752 
  370000   0.91490304 8.1466733e-06   0.44120586            0            0   0.44120586    1.3552001     1.796406    2.2135157 
  375000   0.94295865 -8.3793712e-05   0.42210471            0            0   0.42210471    1.3967575    1.8188622   -2.4713759 
  380000   0.93692013 -6.9585595e-06   0.43087046            0            0   0.43087046    1.3878129    1.8186834    1.4624052 
  385000   0.95712794 -5.3122059e-05   0.39162731            0            0   0.39162731    1.4177458    1.8093731  -0.91047636 
  390000   0.93795444 -3.9530518e-05   0.45201751            0            0   0.45201751     1.389345    1.8413625  -0.18260002 
  395000   0.97993436 7.305692e-05   0.37670151            0            0   0.37670151    1.4515278    1.8282293    5.5687436 
  400000    0.8882802 -2.4469949e-05   0.51633101            0            0   0.51633101     1.315765    1.8320961   0.57923465 
  405000   0.90550098 -1.6664414e-05   0.49659229            0            0   0.49659229    1.3412733    1.8378656   0.98464764 
  410000   0.90609695 2.9383726e-05   0.50762123            0            0   0.50762123    1.3421561    1.8497773    3.3542241 
  415000   0.95739678 -7.4236847e-05   0.43696605            0            0   0.43696605     1.418144      1.85511   -1.9458166 
  420000   0.90234853 -1.7764991e-05   0.51704053            0            0   0.51704053    1.3366038    1.8536443   0.94407674 
  425000   0.89497218 0.00010195507   0.55499686            0            0   0.55499686    1.3256775    1.8806744    7.1007738 
  430000   0.90609373 -8.9872629e-05   0.53285499            0            0   0.53285499    1.3421513    1.8750063   -2.7264723 
  435000   0.90064285 0.00011131677   0.52884186 0.00099261091            0   0.52784925    1.3340772    1.8629191    7.5623375 
  440000   0.98097556 -0.00011116095   0.43396399 0.0065391499            0   0.42742484    1.4530701     1.887034   -3.8044065 
  445000   0.97878021 6.1490494e-05   0.43850772 0.0058852117            0   0.43262251    1.4498182    1.8883259    5.0366392 
  450000   0.90497432 9.4305708e-05   0.51548511 0.0037607947            0   0.51172432    1.3404932    1.8559783    6.6844306 
  455000   0.94147941 -0.00013803823    0.4795445 0.00010251281            0   0.47944199    1.3945664    1.8741109   -5.1934464 
  460000   0.95710302 4.6497123e-05   0.45281742            0            0   0.45281742    1.4177088    1.8705263     4.251179 
  465000   0.92864095 7.4450251e-05   0.49853279            0            0   0.49853279    1.3755494    1.8740822    5.6859351 
  470000   0.95366174 -3.5368367e-05   0.48157664            0            0   0.48157664    1.4126115    1.8941881  0.083327697 
  475000    1.0261619 0.0001118177   0.37317643            0            0   0.37317643    1.5200023    1.8931787    7.6182448 
  480000    1.0424192 4.2144655e-05   0.35224406            0            0   0.35224406    1.5440834    1.8963274    4.0541338 
  485000    1.0361984 -4.2959663e-05   0.36663465            0            0   0.36663465    1.5348688    1.9015035  -0.29803128 
  490000   0.95942429 6.1887935e-05   0.46207883            0            0   0.46207883    1.4211472    1.8832261    5.0518883 
  495000   0.95151524 -9.2155512e-05   0.45036102 0.00078155779            0   0.44957947    1.4094319     1.859793   -2.8585692 
  500000   0.96513728 4.6049998e-06   0.41375482 0.0011346031            0   0.41262022    1.4296096    1.8433644    2.0791404 
  505000   0.91229863 0.00019877487   0.49947744 0.00063809558            0   0.49883935    1.3513423    1.8508198    12.028093 
  510000   0.94912933 -5.0610053e-05   0.41133725 0.00030484699            0    0.4110324    1.4058978    1.8172351  -0.77399963 
  515000   0.99202996 3.4474395e-05   0.35995461 0.00029283582            0   0.35966178    1.4694444     1.829399     3.594488 
  520000   0.94953497 -4.6123451e-05   0.46193704 0.00072269335            0   0.46121435    1.4064987    1.8684357  -0.49308499 
  525000   0.91969339 3.039356e-06   0.50036276 0.00034293393            0   0.50001982    1.3622958    1.8626586    2.0182736 
  530000   0.88141173 5.4476984e-05   0.56654702            0            0   0.56654702    1.3055911    1.8721381    4.6613597 
  535000   0.92282377 -7.5552307e-05   0.52797392            0            0   0.52797392    1.3669327    1.8949066   -1.9733715 
  540000     1.004739 4.0337876e-05   0.39746733 0.00057288812            0   0.39689444    1.4882697     1.885737    3.9510362 
  545000   0.95034295 4.1679288e-05   0.46668539 0.0096804445            0   0.45700494    1.4076955    1.8743809    4.0083604 
  550000   0.93730832 9.2417766e-05   0.47678907  0.026202442            0   0.45058663    1.3883879     1.865177    6.5969666 
  555000   0.95748024 -0.00013206719   0.46249499 0.0021603098            0   0.46033468    1.4182676    1.8807626   -4.8810777 
  560000    1.0222173 -5.5175948e-05   0.40413775            0            0   0.40413775    1.5141593    1.9182971  -0.90671146 
  565000   0.98290423 0.00010191082   0.44645619            0            0   0.44645619    1.4559269    1.9023831    7.1202171 
  570000   0.95060752 -2.1662989e-05   0.49868476            0            0   0.49868476    1.4080874    1.9067721   0.79762709 
  575000    1.0073889 -6.2197556e-06    0.4157872            0            0    0.4157872    1.4921948     1.907982    1.5895305 
  580000   0.93567358 -7.6921778e-05   0.51222396            0            0   0.51222396    1.3859665    1.8981905   -2.0402046 
  585000   0.95135346 -7.4140164e-06   0.49035895            0            0   0.49035895    1.4091923    1.8995513    1.5199536 
  590000    0.9565594 2.3695988e-05    0.4939487 0.00079375329            0   0.49315495    1.4169036    1.9108523    3.1240869 
  595000   0.94369743 8.1614743e-05   0.52882321 0.0021712687            0   0.52665194    1.3978518     1.926675    6.1053499 
  600000   0.93532862 -2.2691106e-05   0.56239932 0.0025751881            0   0.55982413    1.3854555    1.9478548   0.78607022 
  605000    1.0612873 4.2613139e-05   0.39876078 0.0016561897            0   0.39710459    1.5720317    1.9707925    4.1525852 
  610000    1.0086844 3.7992951e-06   0.47130107 0.0017104395            0   0.46959063    1.4941138    1.9654149    2.1599388 
  615000    1.0697636 7.4567869e-05   0.38669874 0.0011084677            0   0.38559027    1.5845874    1.9712861     5.789161 
  620000    1.0530546 7.6976818e-05    0.4080608 0.0025525901            0   0.40550821    1.5598372     1.967898     5.909111 
  625000    1.0992273 -6.5742692e-05   0.36775414 0.0039763591            0   0.36377779    1.6282305    1.9959847   -1.3700412 
  630000    1.0489509 -8.2992484e-06   0.41687701  0.017458594            0   0.39941841    1.5537585    1.9706355     1.545714 
  635000   0.95412791 -0.0001547453   0.56979891  0.017427519            0   0.55237139     1.413302    1.9831009   -5.9398586 
  640000     1.045173 1.5120793e-05    0.4576434 0.0090470204            0   0.44859638    1.5481626    2.0058059    2.7799906 
  645000     1.018747 -7.8388068e-05   0.50159502 0.0022568661            0   0.49933815     1.509019     2.010614   -2.0028551 
  650000    1.0061271 -4.3364981e-05   0.52752474  0.010838444            0    0.5166863    1.4903258    2.0178505  -0.20243654 
  655000    1.0269728 -7.827539e-06    0.4810188  0.020080777            0   0.46093803    1.5212034    2.0022222    1.6014522 
  660000    1.0269309 4.7647324e-05   0.44646711  0.003056391            0   0.44341072    1.5211415    1.9676086    4.4071515 
  665000    1.0202821 9.6598531e-05   0.44557939 9.9458791e-05            0   0.44547993    1.5112929    1.9568723    6.9027171 
  670000    1.0242826 -3.9860087e-05   0.44299447            0            0   0.44299447    1.5172186     1.960213 -0.080623411 
  675000    1.0162159 0.00010850805   0.42529749            0            0   0.42529749    1.5052698    1.9305673    7.4861794 
  680000    1.0749017 -7.3225401e-05   0.30786264            0            0   0.30786264    1.5921982    1.9000608   -1.8490797 
  685000    0.9828335 -9.4229134e-06   0.43952745            0            0   0.43952745    1.4558221    1.8953496    1.4128964 
  690000   0.98834956 3.6692113e-05   0.44530958            0            0   0.44530958    1.4639928    1.9093024    3.7879385 
  695000    1.0450046 7.6056226e-05    0.3283777 0.00011463672            0   0.32826306    1.5479131    1.8762908    5.7703696 
  700000   0.95032779 1.0590594e-05   0.47606449 0.0014389544            0   0.47462553     1.407673    1.8837375    2.4259759 
  705000   0.95904563 -1.0616756e-05   0.46075592 0.0022279501            0   0.45852797    1.4205863    1.8813422    1.3377643 
  710000   0.98095872 -2.2057232e-05   0.42226536 0.00096849444            0   0.42129686    1.4530451    1.8753105   0.74598017 
  715000    1.0117546 1.147628e-05   0.38860344 0.0012877432            0    0.3873157    1.4986615    1.8872649    2.4748505 
  720000   0.98891218 -7.2749713e-05   0.44373407 0.0018620505            0   0.44187202    1.4648262    1.9085602    -1.816225 
  725000   0.99097782 2.7199503e-05   0.43421434   0.00110479            0   0.43310955    1.4678859    1.9021002    3.2947148 
  730000    1.0278184 -5.5834468e-06    0.3863757  0.001789934            0   0.38458577     1.522456    1.9088317    1.6229592 
  735000   0.98448599 0.00012637795   0.44353035 0.0041609135            0   0.43936944    1.4582699    1.9018002    8.3723511 
  740000   0.99119613 2.0861638e-05   0.48974169 0.0033828369            0   0.48635885    1.4682093     1.957951    3.0260668 
  745000    1.0167288 5.4113767e-05    0.4965795 0.0032226395            0   0.49335686    1.5060296     2.002609    4.7732339 
  750000   0.97854491 2.448476e-05   0.56135472 0.0084262248            0   0.55292849    1.4494696    2.0108244    3.2644441 
  755000    1.0730871 1.7831902e-05   0.43171835 0.0051732978            0   0.42654506    1.5895103    2.0212287    2.9342221 
  760000    1.0748007 -7.2482394e-05   0.41135938 0.0036322821            0   0.40772709    1.5920486     2.003408   -1.7076906 
  765000   0.96643542 -1.9021993e-05   0.53447433 0.0045000803            0   0.52997425    1.4315325    1.9660068   0.99208074 
  770000    1.0261016 -5.1420645e-05   0.44984252 0.0099336093            0   0.43990891     1.519913    1.9697555  -0.66298152 
  775000    1.0219653 -2.7862618e-05   0.44376141  0.008382052            0   0.43537936    1.5137861    1.9575475    0.5309814 
  780000   0.92673949 2.0008754e-05    0.6040534 0.00085782599            0   0.60319558    1.3727329    1.9767863    3.0012344 
  785000   0.95742564 3.456664e-05   0.56427427  0.017501408            0   0.54677286    1.4181867     1.982461    3.7522729 
  790000    1.0128229 9.8660067e-05   0.49242886  0.033069617            0   0.45935925     1.500244    1.9926728    7.0440683 
  795000    0.9880192 -0.00016398326   0.53388058   0.01753194            0   0.51634864    1.4635034     1.997384   -6.3985589 
  800000    1.0085545 4.6396396e-06   0.53802317  0.043625938            0   0.49439724    1.4939214    2.0319446    2.2694941 
  805000    1.0564187 1.0651143e-05   0.46082319 0.0031897984            0   0.45763339    1.5648203    2.0256434     2.570982 
  810000    1.0603084 -4.2143257e-05   0.45793434 0.0013193039            0   0.45661504    1.5705819    2.0285162  -0.12921855 
  815000    1.0425473 -1.0710836e-05   0.45737411  0.013855967            0   0.44351814    1.5442731    2.0016472    1.4532524 
  820000   0.95951721 -8.7495995e-06   0.56108778  0.038686633            0   0.52240114    1.4212849    1.9823726    1.5343932 
  825000     0.970965 0.00012490493   0.52357282 0.0078897829            0   0.51568304    1.4382419    1.9618147    8.3569469 
  830000   0.95790776 7.0914658e-05    0.5204491 0.0045700154            0   0.51587909    1.4189009      1.93935    5.5701805 
  835000   0.92244548 4.5112197e-07   0.55441005 0.0076406307            0   0.54676942    1.3663724    1.9207824    1.9438799 
  840000   0.93799148 3.255528e-05   0.52534504 0.0039047173            0   0.52144033    1.3893999    1.9147449    3.5815752 
  845000   0.94307822 6.1992819e-06   0.49682608 0.0028736664            0   0.49395242    1.3969346    1.8937607    2.2111639 
  850000   0.91651618 -1.4204231e-05   0.53784395  0.024197506            0   0.51364644    1.3575896    1.8954335    1.1681769 
  855000   0.99450694 -8.940301e-06    0.4602677  0.018035771            0   0.44223193    1.4731134    1.9333811    1.4756377 
  860000   0.93448192 -7.7334809e-05   0.55123749 0.0030189199            0   0.54821857    1.3842013    1.9354388   -2.0241034 
  865000   0.93170652 2.6058444e-06   0.55843501  0.006579342            0   0.55185567    1.3800903    1.9385253    2.0719445 
  870000   0.95316012 -0.00012190763   0.53525844  0.022267163            0   0.51299128    1.4118684    1.9471269   -4.2945439 
  875000     1.018797 -1.1983709e-05   0.42091999  0.011139341            0   0.40978065     1.509093     1.930013    1.3164471 
  880000   0.94899264 4.3688411e-05   0.53931819 0.0029004415            0   0.53641775    1.4056954    1.9450135    4.1818602 
  885000   0.96498837 7.9104344e-05    0.5188768 0.0029029071            0   0.51597389     1.429389    1.9482658    5.9984083 
  890000    1.0071361 -5.3995958e-05   0.44508869 0.0036103732            0   0.44147832    1.4918204    1.9369091  -0.82768395 
  895000   0.93988523 0.00011537691   0.54968448 0.0038858479            0   0.54579863     1.392205    1.9418895    7.8491874 
  900000    0.9723638 -0.00011228672   0.51313795 0.0024743379            0   0.51066362    1.4403139    1.9534518   -3.7956284 
  905000   0.98525592 9.1882192e-05   0.49298132 0.0026940824            0   0.49028724    1.4594103    1.9523917    6.6567599 
  910000    1.0080885 9.6367131e-05   0.46618452 0.0045943795            0   0.46159014     1.493231    1.9594155    6.8934127 
  915000    1.0094312 1.9809386e-05   0.44152968   0.01626827            0   0.42526141      1.49522    1.9367497    2.9509903 
  920000   0.92057371 4.2048051e-07   0.56882056  0.004171257            0    0.5646493    1.3635998    1.9324204     1.953949 
  925000   0.97405458 -6.2734874e-05    0.4979783 0.0048368909            0   0.49314141    1.4428183    1.9407966   -1.2712289 
  930000    1.0000757 -3.8965145e-05   0.49149222  0.013979142            0   0.47751308    1.4813622    1.9728544 -0.022161055 
  935000   0.97937772 -9.3216018e-05   0.51921583  0.012219408            0   0.50699642    1.4507032    1.9699191   -2.8027411 
  940000    1.0358691 -3.4163128e-05   0.44061207   0.00436343            0   0.43624864    1.5343811    1.9749932   0.22584108 
  945000    1.0230877 -6.5855986e-05   0.46009665 0.0066430783            0   0.45345357    1.5154486    1.9755452   -1.3962812 
  950000    1.0140944 0.00010476104   0.47775714  0.013683618            0   0.46407352    1.5021273    1.9798845    7.3436495 
  955000   0.95786987 8.2540419e-05   0.55242076  0.020602115            0   0.53181865    1.4188447    1.9712655     6.197335 
  960000   0.98120537 -3.6736815e-06   0.47537766  0.024109414            0   0.45126824    1.4534105    1.9287881    1.7406956 
  965000   0.95590817 -8.7546706e-05    0.4796824  0.023990654            0   0.45569174     1.415939    1.8956214     -2.58677 
  970000   0.91931772 -1.1387012e-05   0.51216944  0.010135078            0   0.50203436    1.3617394    1.8739088    1.2908938 
  975000   0.98668102 4.9677124e-05   0.41914321  0.011233467            0   0.40790975    1.4615213    1.8806645    4.4241332 
  980000   0.98058979 -5.0199797e-05    0.4086801 0.0084229938            0    0.4002571    1.4524986    1.8611787  -0.70905089 
  985000   0.93473119 0.00012024803   0.47776439  0.014312814            0   0.46345157    1.3845706     1.862335    8.0190343 
  990000   0.95577238 -0.00016395343   0.43815205  0.024102821            0   0.41404923    1.4157378    1.8538899   -6.5405256 
  995000   0.97969684 1.2086519e-05   0.40674833 0.00096003789            0   0.40578829    1.4511759    1.8579243     2.476754 
 1000000   0.83030046 -8.7036633e-05   0.59766239 0.00019173257            0   0.59747066    1.2298825    1.8275449   -2.6287307 
 1005000   0.90562835 0.00011008171   0.46927202 0.0013772272            0   0.46789479     1.341462     1.810734    7.4469175 
 1010000    0.9307458 -2.0700277e-05   0.42905362 0.0026532714            0   0.42640035    1.3786672    1.8077208   0.74786664 
 1015000   0.93943961 3.6515001e-05     0.385863 0.0045053909            0   0.38135761    1.3915449    1.7774079     3.646976 
 1020000   0.89638587 -0.00015415102   0.47254999 0.0091882643            0   0.46336172    1.3277716    1.8003216   -6.0922108 
 1025000   0.88105279 8.494588e-05    0.4919017 0.0038314933            0   0.48807021    1.3050594    1.7969611    6.1461902 
 1030000   0.93348993 -5.30573e-05   0.43913641            0            0   0.43913641     1.382732    1.8218684  -0.89466541 
 1035000   0.89696426 -5.9175186e-05    0.5086534            0            0    0.5086534    1.3286283    1.8372817   -1.1924878 
 1040000   0.86538514 -3.8986003e-05   0.53214131            0            0   0.53214131    1.2818517     1.813993  -0.18209031 
 1045000   0.96284406 -5.0990381e-05   0.41215234            0            0   0.41215234    1.4262128    1.8383651   -0.7723424 
 1050000   0.94697244 -5.4588991e-05   0.41170595 0.00020306441            0   0.41150289    1.4027029    1.8144089  -0.98054748 
 1055000   0.91027314 -4.9883083e-05   0.44704693   0.01045929            0   0.43658764    1.3483421     1.795389  -0.75862481 
 1060000   0.90769367 5.7846251e-05   0.46649446 0.0074148884            0   0.45907957    1.3445212    1.8110157    4.7727438 
 1065000   0.92655117 0.00012976848    0.4536092 0.0011968235            0   0.45241238    1.3724539    1.8260631    8.4702093 
 1070000   0.88732617 -1.8288019e-05   0.52167753 0.00014779875            0   0.52152973    1.3143519    1.8360294   0.89968283 
 1075000   0.88541376 6.7346258e-05   0.52924957 0.0018959491            0   0.52735362    1.3115191    1.8407687    5.2888971 
 1080000    0.8827407 -2.127763e-05   0.52545605 0.0061971575            0    0.5192589    1.3075597    1.8330157   0.74360108 
 1085000   0.94138662 8.3948749e-06    0.4247557  0.003379535            0   0.42137616    1.3944289    1.8191846    2.2490022 
 1090000   0.90441571 -1.6155625e-05   0.46589159 0.00064276062            0   0.46524883    1.3396658    1.8055573   0.97838933 
 1095000   0.91713189 -0.0001588665   0.47054686 0.0013661198            0   0.46918074    1.3585016    1.8290485   -6.3049162 
 1100000   0.82461001 -2.6908777e-05   0.61166984 0.0026504757            0   0.60901936    1.2214536    1.8331234   0.45539403 
 1105000   0.98035791 -1.6298428e-05   0.34338686 0.0010844786            0   0.34230238    1.4521552     1.795542   0.96106252 
 1110000    0.8873039 -6.3380081e-05   0.47540624 0.00019455864            0   0.47521168    1.3143189    1.7897251    -1.455335 
 1115000   0.89272489 7.9058461e-05   0.45342755 0.0021156054            0   0.45131195    1.3223487    1.7757763    5.8235695 
 1120000   0.93000319 4.5159033e-05   0.40269763   0.00292668            0   0.39977095    1.3775672    1.7802649    4.0924073 
 1125000   0.89659573 1.2867288e-05   0.46331438 0.0051288636            0   0.45818551    1.3280824    1.7913968    2.4502019 
 1130000   0.87395322 -7.4331169e-05   0.50238391 0.0084619209            0   0.49392199    1.2945432    1.7969271   -2.0088287 
 1135000   0.92831556 -6.8824439e-05   0.44102407 0.0085989816            0   0.43242509    1.3750674    1.8160915   -1.7077198 
 1140000   0.86602042 -9.059228e-05    0.5378008 0.0084844649            0   0.52931633    1.2827928    1.8205935   -2.8177312 
 1145000   0.91845247 4.2472682e-05   0.46846286   0.02446039            0   0.44400247    1.3604577    1.8289206    4.0035219 
 1150000   0.90021361 5.6228623e-05   0.49683117  0.013809122            0   0.48302205    1.3334414    1.8302726    4.7091781 
 1155000   0.90930145 1.546218e-05   0.49204313 0.0091838611            0   0.48285927    1.3469028    1.8389459    2.6306095 
 1160000   0.93415021 8.8056156e-05   0.46768201 0.0058362967            0   0.46184572      1.38371     1.851392    6.3598672 
 1165000   0.91927555 -5.4055182e-05   0.48424869  0.015800538            0   0.46844815    1.3616769    1.8459256  -0.92169974 
 1170000   0.98866346 -3.7192584e-05   0.37800291  0.020682663            0   0.35732024    1.4644577    1.8424607 -0.061799638 
 1175000   0.91770404 5.4147933e-05   0.47698082  0.028488337            0   0.44849249    1.3593491    1.8363299    4.6087041 
 1180000   0.87307174 2.9571044e-05   0.51809849  0.013304027            0   0.50479446    1.2932375     1.811336    3.3253735 
 1185000   0.84762261 6.712022e-05   0.55894823  0.016844895            0   0.54210334     1.255541    1.8144892    5.2510445 
 1190000   0.87915114 -2.935968e-05   0.50951482  0.035914903            0   0.47359992    1.3022426    1.8117575   0.30854182 
 1195000   0.86688958 3.0201203e-05   0.53624235 0.0068231391            0   0.52941921    1.2840802    1.8203225    3.3666242 
 1200000    0.8927375 -7.7275076e-06   0.50052866 0.00022311911            0   0.50030554    1.3223674    1.8228961    1.4272477 
 1205000   0.88967102 9.9067801e-05   0.50129637 0.0058037883            0   0.49549258    1.3178252    1.8191216     6.891393 
 1210000   0.87648356 0.00012150323   0.52354295  0.018179656            0    0.5053633    1.2982913    1.8218342    8.0427996 
 1215000   0.85194765 1.5956366e-05   0.55920166  0.021845951            0    0.5373557    1.2619474    1.8211491     2.638115 
 1220000   0.90155477 0.00013179335    0.5026789  0.026504589            0   0.47617432     1.335428    1.8381069    8.5859267 
 1225000   0.86747944 4.1347164e-05   0.56270147  0.015539468            0     0.547162    1.2849539    1.8476554    3.9646302 
 1230000   0.94904516 4.7432797e-05   0.46577053 0.0073700237            0   0.45840051    1.4057731    1.8715437    4.3001029 
 1235000    0.8723418 -3.9377025e-05   0.57891738  0.015033893            0   0.56388349    1.2921563    1.8710737  -0.14503003 
 1240000   0.86997466 5.3446321e-05   0.57708454   0.02023657            0   0.55684797      1.28865    1.8657345    4.6021861 
 1245000   0.92308509 0.00010993521   0.50838155 0.0086017819            0   0.49977977    1.3673198    1.8757013    7.5043841 
 1250000   0.85722616 4.3932369e-05   0.63213021   0.02635324            0   0.60577697    1.2697662    1.9018965    4.1512338 
 1255000   0.93853015 0.00014278181    0.5209549  0.040407112            0   0.48054779    1.3901978    1.9111527    9.2215815 
 1260000   0.91521297 8.3836306e-05   0.55637919  0.025091313            0   0.53128788    1.3556592    1.9120384    6.2044573 
 1265000   0.94407068 1.5391951e-05   0.52225149  0.011811481            0   0.51044001    1.3984047    1.9206562    2.7087241 
 1270000   0.90159518 5.7353399e-05   0.56945906  0.012561477            0   0.55689759    1.3354879    1.9049469     4.841441 
 1275000   0.96396879 0.00013357974   0.47481027  0.022512747            0   0.45229753    1.4278788     1.902689    8.7419719 
 1280000   0.90473937 -6.2769104e-05   0.54419928  0.023407986            0    0.5207913    1.3401452    1.8843445   -1.3294336 
 1285000   0.97397901 2.9933683e-05   0.44578341  0.006566499            0   0.43921691    1.4427064    1.8884898    3.4210944 
 1290000   0.98523427 9.0530854e-05   0.43234898 0.0020735728            0    0.4302754    1.4593783    1.8917272    6.5269069 
 1295000   0.92507755 -5.0074991e-05   0.50698403 0.00047549125            0   0.50650854    1.3702711    1.8772552  -0.68658438 
 1300000    0.8976742 -1.7947384e-06   0.56948849 8.1588965e-05            0    0.5694069    1.3296799    1.8991684    1.8072778 
 1305000    0.8676103 4.5459566e-05   0.60870678 0.0022420773            0    0.6064647    1.2851477    1.8938545    4.2213843 
 1310000   0.94685243 -3.890714e-05   0.48343097  0.011584381            0   0.47184658    1.4025252    1.8859561  -0.10608944 
 1315000   0.92572012 -0.00013596489   0.51660537  0.027318195            0   0.48928718    1.3712229    1.8878283   -5.0735742 
 1320000   0.86293426 7.1871897e-05   0.59423893  0.030061754            0   0.56417718    1.2782214    1.8724603    5.5523014 
 1325000   0.93129282 7.5903094e-05   0.47259761  0.016129872            0   0.45646774    1.3794775    1.8520751    5.7383135 
 1330000   0.88144616 -0.00013593389   0.55047179  0.004889249            0   0.54558254    1.3056421    1.8561139   -5.1037012 
 1335000   0.89314886 -2.3052025e-05   0.52491309 0.00072887783            0   0.52418422    1.3229767    1.8478898   0.66762617 
 1340000   0.86989851 0.00013798483   0.54732613 0.00025219386            0   0.54707394    1.2885372    1.8358633    8.9006864 
 1345000   0.87988302 2.5644102e-05   0.54835664 8.8046814e-05            0   0.54826859    1.3033267    1.8516834    3.1646614 
 1350000   0.92645747 7.5247523e-05   0.48417841 0.0012630135            0    0.4829154    1.3723151    1.8564935    5.7091667 
 1355000   0.92961484 6.0384587e-05   0.46974442 0.0043551577            0   0.46538926     1.376992    1.8467364    4.9384273 
 1360000   0.86896745 -3.266497e-05   0.53406612 0.0024558252            0   0.53161029     1.287158    1.8212242   0.14877767 
 1365000   0.89161496 3.6624022e-05   0.51059163 0.0040807696            0   0.50651086    1.3207047    1.8312963    3.7064462 
 1370000   0.82993256 0.00015002099   0.61171456  0.044595198            0   0.56711937    1.2293376    1.8410522    9.5221268 
 1375000   0.96714621 -8.6342267e-05   0.42757427  0.034990812            0   0.39258346    1.4325853    1.8601596   -2.5605645 
 1380000   0.93079142 -5.0303274e-05   0.48206685 0.0010099416            0   0.48105691    1.3787348    1.8608016  -0.71472597 
 1385000   0.91569951 5.1090853e-05   0.50012738 0.0021292393            0   0.49799814    1.3563799    1.8565073     4.472359 
 1390000   0.88085599 0.00017003978   0.56947679 0.0044048278            0   0.56507196    1.3047679    1.8742447    10.580282 
 1395000   0.94764622 0.0001808165   0.49239874 0.00074551678            0   0.49165323     1.403701    1.8960997    11.153904 
 1400000   0.95921204 -3.4983154e-05   0.48030532 0.00048023172            0   0.47982508    1.4208328    1.9011381   0.11000067 
 1405000   0.88148436 -3.4322479e-05   0.60634584   0.01314303            0   0.59320281    1.3056987    1.9120445   0.15473364 
 1410000   0.92692513 -4.3616947e-05   0.55222487 0.0097185174            0   0.54250635    1.3730078    1.9252327    -0.307955 
 1415000   0.98809266 -0.00015528433   0.49950104  0.008824658            0   0.49067638    1.4636123    1.9631133   -5.9874444 
 1420000    1.0307037 -4.9373101e-05   0.46786471 0.0089910151            0   0.45887369    1.5267299    1.9945946  -0.53330816 
 1425000    1.0585052 7.8157625e-05   0.44497913  0.007973173            0   0.43700596    1.5679108    2.0128899    6.0145603 
 1430000   0.99618589 -6.3847715e-05   0.54000836  0.033164291            0   0.50684407    1.4756004    2.0156087   -1.2533943 
 1435000   0.94728116 2.2424459e-05   0.62425008  0.014611393            0   0.60963869    1.4031602    2.0274103    3.1755426 
 1440000    1.0348996 9.4452204e-05   0.45847147  0.034913385            0   0.42355809     1.532945    1.9914165    6.8273693 
 1445000   0.99411655 -1.7788743e-05   0.51507038  0.017782512            0   0.49728787    1.4725351    1.9876055    1.0768219 
 1450000    1.0008771 -6.6396115e-05   0.50888994  0.020131831            0   0.48875811    1.4825492    1.9914391    -1.408042 
 1455000   0.93104937 -0.00015272504   0.58455835  0.035280672            0   0.54927768    1.3791169    1.9636752    -5.855847 
 1460000     0.877237 9.2524025e-06   0.67653981   0.03801574            0   0.63852407    1.2994073    1.9759471    2.4496701 
 1465000   0.97496787 3.5542931e-05   0.49748517  0.032035098            0   0.46545007    1.4441712    1.9416563    3.7614544 
 1470000   0.96467972 -3.1320656e-05   0.52462788  0.013278238            0   0.51134964    1.4289318    1.9535597    0.3499421 
 1475000   0.93242516 0.00015882157    0.6070798  0.027066861            0   0.58001294    1.3811548    1.9882346    10.119899 
 1480000    0.9406145 0.00016117545   0.62458823  0.032391907            0   0.59219633    1.3932852    2.0178735    10.270056 
 1485000   0.97551538 -4.1077623e-05   0.57179158 0.0078546814            0    0.5639369    1.4449822    2.0167737 -0.086400572 
 1490000    1.0014312 5.7765727e-05   0.52186936  0.031246272            0   0.49062309      1.48337    2.0052394    4.9628446 
 1495000   0.91413627 0.00013586217   0.67082921  0.023841837            0   0.64698737    1.3540644    2.0248936    8.9810367 
 1500000   0.97923269 1.5939618e-06   0.56669602  0.019993066            0   0.54670295    1.4504884    2.0171844    2.0987953 
 1505000     1.021051 1.5454599e-05   0.50974237  0.014064095            0   0.49567828    1.5124318    2.0221742    2.8134496 
 1510000    1.0016395 0.00010855591   0.54866851  0.016834869            0   0.53183364    1.4836785     2.032347    7.5904094 
 1515000    1.0143191 7.7646364e-05   0.53560997  0.015411088            0   0.52019889    1.5024602    2.0380702     6.013564 
 1520000    1.0224974 0.00012151253   0.56009061 0.0009754476            0   0.55911516    1.5145743    2.0746649    8.2961065 
 1525000    1.1625972 9.6144142e-05   0.34900128 0.0061718201            0   0.34282946    1.7220971    2.0710984    6.9936784 
 1530000   0.93823698 -8.6267362e-06   0.68797937  0.024702958            0   0.66327641    1.3897635    2.0777429     1.636054 
 1535000   0.94824083 1.0909392e-05   0.67028302  0.023881534            0   0.64640148    1.4045817    2.0748648    2.6334256 
 1540000   0.98116816 8.004059e-05   0.64184091  0.012137881            0   0.62970302    1.4533553    2.0951962    6.1932745 
 1545000   0.98108761 7.2720204e-05   0.64714591  0.012353073            0   0.63479283     1.453236    2.1003819    5.8236564 
 1550000    1.0183318 5.4384799e-05   0.56540128  0.030741383            0   0.53465989     1.508404    2.0738052    4.8583069 
 1555000   0.97682654 -7.5516404e-05   0.59227698  0.020495374            0   0.57178161    1.4469243    2.0392013   -1.8272386 
 1560000    1.0122219 -6.2597947e-05   0.50520739  0.016531607            0   0.48867578    1.4993536     2.004561   -1.2004538 
 1565000   0.89375956 -1.4971143e-05   0.68471639   0.02438194            0   0.66033445    1.3238814    2.0085977    1.2420752 
 1570000   0.96719828 -4.0634804e-05   0.59342268  0.017632051            0   0.57579063    1.4326624    2.0260851 -0.054416857 
 1575000   0.98807441 -6.4467637e-05   0.56309178  0.010120286            0   0.55297149    1.4635852     2.026677    -1.274066 
 1580000   0.97724627 -7.6282414e-05   0.55123881 0.0061164561            0   0.54512235     1.447546    1.9987848   -1.9068748 
 1585000   0.97514041 0.00014795525   0.55697255  0.006544865            0   0.55042769    1.4444267    2.0013993     9.576708 
 1590000   0.97140512 5.1637898e-05   0.55084816 0.0086747447            0   0.54217341    1.4388938     1.989742    4.6336024 
 1595000   0.95644836 -6.4308222e-05   0.58899266  0.013541429            0   0.57545123    1.4167391    2.0057318   -1.2868492 
 1600000   0.93077808 -5.6892429e-05   0.62991101  0.018157252            0   0.61175375     1.378715     2.008626  -0.90426631 
 1605000    1.0035247 -9.3920994e-05   0.49668851  0.007757406            0   0.48893111     1.486471    1.9831595   -2.8255954 
 1610000   0.95345384 -3.1616428e-05   0.62076093 0.0055130759            0   0.61524785    1.4123035    2.0330644    0.4143033 
 1615000    1.0418991 -7.9311064e-05   0.51357719 0.0027637194            0   0.51081347    1.5433131    2.0568903   -2.0038362 
 1620000   0.99851616   -7.171e-05   0.59607969  0.001513385            0   0.59456631    1.4790521    2.0751318   -1.5964202 
 1625000   0.95850924 -1.3594004e-05   0.64519077 0.0012412061            0   0.64394956    1.4197918    2.0649826    1.3689696 
 1630000    1.0288191 1.4905914e-05   0.57782207 0.0075592356            0   0.57026283    1.5239382    2.1017603    2.8649431 
 1635000   0.97581086 -4.9145001e-05    0.6844763 0.0067281335            0   0.67774816    1.4454198    2.1298961  -0.38632794 
 1640000    1.0553893 -5.4507035e-05   0.54293461 0.0051201421            0   0.53781447    1.5632954      2.10623  -0.68453017 
 1645000    1.0376029 2.3910082e-05   0.57821296  0.032977409            0   0.54523555    1.5369492    2.1151622    3.3393584 
 1650000    1.0212702 7.5079553e-05   0.60341923  0.039811364            0   0.56360786    1.5127565    2.1161757    5.9602488 
 1655000    1.0714221 0.00013025451    0.5731634 0.0027055514            0   0.57045785     1.587044    2.1602074    8.8292381 
 1660000    1.1054625 1.9199124e-05    0.5185322 0.0050830647            0   0.51344913    1.6374663    2.1559985    3.1389936 
 1665000    1.0333806 -7.8552083e-05   0.62721563  0.019904194            0   0.60731144     1.530695    2.1579106    -1.863956 
 1670000    1.0417875 -5.0892957e-05   0.61203337  0.010270926            0   0.60176244    1.5431478    2.1551812  -0.45053824 
 1675000     1.001677 -4.9701181e-05   0.68132745 0.0042570945            0   0.67707036    1.4837341    2.1650615  -0.37963891 
 1680000    1.0300649 -2.9987679e-05    0.6344222 0.0051173893            0   0.62930481    1.5257837    2.1602059   0.62483673 
 1685000    1.0488028 4.0982592e-05   0.60005343 0.0036664939            0   0.59638694    1.5535392    2.1535926    4.2519013 
 1690000   0.93357952 -5.6851668e-05   0.79238362  0.013561985            0   0.77882163    1.3828647    2.1752483  -0.73555715 
 1695000    1.0632857 -4.2653446e-05    0.5913958  0.028956447            0   0.56243935     1.574992    2.1663878 -0.017468655 
 1700000    1.0937417 -2.0387881e-05    0.5667114 0.0087356387            0   0.55797576    1.6201048    2.1868162    1.1429567 
 1705000    1.0774893 -6.4192785e-05   0.59918606 0.0073764405            0   0.59180962    1.5960311    2.1952171   -1.0914535 
 1710000    1.0210798 -3.2041006e-05   0.66225294  0.012949025            0   0.64930392    1.5124745    2.1747275   0.53422795 
 1715000   0.98831974 -7.2728349e-05   0.68734137  0.017167553            0   0.67017382    1.4639486      2.15129   -1.5724015 
 1720000   0.97643198 -2.6949161e-06   0.67329779 0.0072991301            0   0.66599866    1.4463399    2.1196377     1.981658 
 1725000    1.1139287 9.2191497e-05   0.45632326 0.0036016883            0   0.45272157    1.6500069    2.1063302    6.8265348 
 1730000   0.95465245 -2.99725e-05   0.68164607  0.008500001            0   0.67314607    1.4140789     2.095725   0.56113304 
 1735000    1.0568772 5.7984455e-05   0.54541918  0.016020556            0   0.52939862    1.5654994    2.1109186    5.0797227 
 1740000    1.0014711 0.00014866404   0.61347595  0.032869397            0   0.58060655     1.483429     2.096905    9.7085037 
 1745000    1.0613209 -1.1496426e-05   0.51752335  0.033350688            0   0.48417266    1.5720816    2.0896049    1.5009879 
 1750000   0.98866789 -4.601452e-05   0.66196162  0.023552119            0    0.6384095    1.4644643    2.1264259  -0.22951748 
 1755000   0.98482148 7.352208e-05   0.63881827   0.02658465            0   0.61223362    1.4587668    2.0975851    5.8619156 
 1760000    1.0486462 -4.9168237e-05   0.52700375  0.044502318            0   0.48250143    1.5533072     2.080311  -0.43710276 
 1765000    1.0033515 -7.6090532e-05   0.61345302  0.033333353            0   0.58011967    1.4862144    2.0996674   -1.7961678 
 1770000   0.93192175 2.1213747e-05   0.72315958  0.032475194            0   0.69068438    1.3804091    2.1035687    3.1897125 
 1775000    1.0101138 5.7212853e-05   0.60613578  0.035469825            0   0.57066596    1.4962311    2.1023669     5.031665 
 1780000   0.94114683 0.00017201528    0.6983225  0.061997398            0    0.6363251    1.3940737    2.0923962    10.899579 
 1785000    1.0482271 1.7827109e-05   0.55931339    0.0258439            0   0.53346949    1.5526865    2.1119998    3.0247478 
 1790000    1.0482405 4.3276119e-05   0.56441163  0.051080066            0   0.51333157    1.5527063    2.1171179    4.3328552 
 1795000    1.0310379 0.00011135796   0.58864289  0.030858912            0   0.55778397    1.5272249    2.1158678    7.8173952 
 1800000    1.0597834 -5.3595709e-05   0.56186976  0.048966867            0    0.5129029    1.5698041    2.1316739  -0.61242644 
 1805000    1.0356621 -9.6430493e-05   0.58899591  0.019872327            0   0.56912358    1.5340745    2.1230704   -2.8141708 
 1810000    1.1242527 8.7590273e-05   0.44575207  0.021466427            0   0.42428565    1.6652993    2.1110514    6.5956734 
 1815000    1.0879177 9.893248e-05    0.5000561   0.02325703            0   0.47679907    1.6114782    2.1115343    7.1768772 
 1820000     1.047691 -6.4885369e-05   0.53984494  0.025652617            0   0.51419233    1.5518923    2.0917373   -1.2303936 
 1825000   0.96865825 -0.00013414363   0.67078269 0.0026067989            0   0.66817589     1.434825    2.1056077   -4.7625461 
 1830000    1.0568196 2.5348304e-05   0.52747824  0.002719229            0   0.52475901    1.5654141    2.0928923    3.3907255 
 1835000    1.0166143  9.50884e-05   0.55418884  0.011677203            0   0.54251164      1.50586    2.0600488    6.9285749 
 1840000    1.0047142 3.0342361e-05   0.56737106  0.019146103            0   0.54822496    1.4882329    2.0556039    3.6091328 
 1845000   0.94354608 -6.6943487e-05   0.64733556  0.062395314            0   0.58494024    1.3976276    2.0449632   -1.3825433 
 1850000    1.0786079 4.1671076e-05   0.45589589  0.028661312            0   0.42723457     1.597688    2.0535838    4.1871429 
 1855000    1.0466841 1.4586772e-05   0.52459535  0.025505342            0   0.49909001    1.5504008    2.0749962    2.8218389 
 1860000    1.0700967 -3.5423937e-05   0.50923488  0.020713003            0   0.48852188    1.5850808    2.0943157   0.28061013 
 1865000    1.0045016 2.2993846e-06   0.63346941  0.030520029            0   0.60294939    1.4879179    2.1213874    2.2391158 
 1870000    1.0540834 -4.2707802e-05   0.56741361  0.051670292            0   0.51574332    1.5613611    2.1287747 -0.057864807 
 1875000    1.0973521 -3.6488741e-05   0.51141314  0.023982881            0   0.48743026    1.6254528    2.1368659    0.2686424 
 1880000    1.0663936 -7.7456641e-05   0.54588803  0.038651351            0   0.50723668    1.5795955    2.1254835   -1.8402965 
 1885000   0.97769267 -5.9473441e-05   0.66805931  0.063038899            0   0.60502041    1.4482073    2.1162666  -0.92877363 
 1890000    1.0591053 3.5692131e-06   0.54568359  0.016308032            0   0.52937555    1.5687997    2.1144833     2.297227 
 1895000    1.0462518 -1.6020496e-05   0.56119172 0.0010326346            0   0.56015909    1.5497604    2.1109522    1.2907028 
 1900000      1.07048 -2.4997079e-05   0.52369656 0.0016036619            0    0.5220929    1.5856485     2.109345   0.82949459 
 1905000    1.1105539 0.00016391175   0.46805425 0.0074022399            0   0.46065201     1.645008    2.1130622    10.505344 
 1910000    1.0923313 7.2368904e-05   0.51715591 0.0091614318            0   0.50799448    1.6180157    2.1351716    5.8404595 
 1915000   0.94215215 -7.2452729e-05   0.71268657  0.013436848            0   0.69924972    1.3955629    2.1082494   -1.6013303 
 1920000    1.0246026 0.00012153316   0.59456973  0.023673469            0   0.57089626    1.5176926    2.1122623    8.3347601 
 1925000    1.0364829 4.8355981e-05   0.61472514 0.0074525937            0   0.60727254    1.5352903    2.1500155    4.6258417 
 1930000    1.0383725 -8.9119122e-05   0.60556232 0.0051966021            0   0.60036572    1.5380892    2.1436516   -2.4192475 
 1935000    1.0420312 1.7679828e-05   0.60980253 0.0035728152            0   0.60622972    1.5435086    2.1533112    3.0585184 
 1940000    1.0491679 -9.1855288e-06   0.59398297  0.010931199            0   0.58305177    1.5540799    2.1480629    1.6777638 
 1945000    1.1090364 3.7718992e-05   0.50951053  0.009788541            0   0.49972199    1.6427601    2.1522707     4.083483 
 1950000    1.0691075 0.00019014412   0.55204512 0.0044792361            0   0.54756588    1.5836155    2.1356606     11.87104 
 1955000    1.1111077 -7.617484e-06   0.47686428 0.0055729098            0   0.47129137    1.6458283    2.1226926    1.7326774 
 1960000    1.1092147 -0.00013623688   0.49435684  0.011116267            0   0.48324057    1.6430242    2.1373811   -4.8379471 
 1965000    1.0595026 3.6926427e-05   0.52043128 0.0038632612            0   0.51656801    1.5693883    2.0898196    3.9804527 
 1970000    1.0566018 6.3590966e-05   0.49861755            0            0   0.49861755    1.5650914     2.063709    5.3195664 
 1975000    1.0966583 -9.6877096e-05   0.43442855  0.004783542            0   0.42964501    1.6244251    2.0588536   -2.9012537 
 1980000    1.0186143 -0.00014074941   0.57940669  0.014408845            0   0.56499785    1.5088224    2.0882291   -5.1181409 
 1985000    1.0552108 -4.1805339e-06   0.49823945 0.0034341961            0   0.49480525     1.563031    2.0612704    1.8472271 
 1990000    1.1061948 2.5530177e-05   0.43190511 0.0012732413            0   0.43063186    1.6385511    2.0704562    3.3776013 
 1995000    1.0691261 -4.8201864e-05   0.50702961 0.0058361857            0   0.50119343     1.583643    2.0906726  -0.37726279 
 2000000    1.0531404 -9.629423e-05   0.55526363   0.01653516            0   0.53872847    1.5599642    2.1152278   -2.8150367 
 2005000    1.0233576 -5.3163029e-05   0.59267332  0.017354895            0   0.57531842    1.5158484    2.1085217  -0.61342538 
 2010000    1.1065502 -1.2246931e-05   0.48921012  0.032924018            0    0.4562861    1.6390774    2.1282876    1.5012447 
 2015000    1.1551133 -0.00010284859   0.43970009  0.026006296            0   0.41369379    1.7110116    2.1507117   -3.1151358 
 2020000    1.0954957 -2.7354741e-05   0.53558041 0.0053043785            0   0.53027603     1.622703    2.1582835   0.75772072 
 2025000    1.1216145 3.5573129e-05    0.5456754 0.0018530681            0   0.54382233    1.6613915    2.2070669    4.0284111 
 2030000     1.106492 -8.4044964e-06   0.55838663 0.0037708062            0   0.55461583    1.6389913     2.197378    1.7670677 
 2035000    1.0894732 1.8275792e-05   0.58116771  0.025528815            0    0.5556389    1.6137821    2.1949498    3.1306704 
 2040000    1.1266368 5.7886609e-05   0.53055611   0.03616201            0    0.4943941    1.6688307    2.1993868    5.1631812 
 2045000    1.1235524 -6.0466305e-05   0.51909899  0.014985433            0   0.50411356     1.664262     2.183361  -0.91251384 
 2050000      1.11102 1.4222086e-06   0.52185594  0.044515813            0   0.47734012    1.6456983    2.1675543    2.2403713 
 2055000    1.0479393 -4.458919e-08   0.61120903  0.040774296            0   0.57043473    1.5522601    2.1634691    2.1611861 
 2060000    1.0851455 -3.0949546e-05   0.54125193 0.0077862982            0   0.53346563    1.6073718    2.1486237   0.56400696 
 2065000    1.0193741 9.7217662e-06   0.63643739  0.018117887            0   0.61831951    1.5099479    2.1463853    2.6441397 
 2070000    1.1408371 1.9701977e-05   0.47069166  0.030479999            0   0.44021166    1.6898649    2.1605565    3.1692978 
 2075000    1.1311548 0.00012257215   0.44583772  0.028297805            0   0.41753992     1.675523    2.1213607    8.3970547 
 2080000   0.97411333 7.9258146e-05   0.67526622  0.055657063            0   0.61960916    1.4429054    2.1181716    6.1761887 
 2085000    1.0247499 -0.00013095414   0.61779447  0.035038833            0   0.58275563    1.5179107    2.1357052    -4.569147 
 2090000    1.1020715 -1.8449202e-05   0.48982095 0.0083264088            0   0.48149454    1.6324434    2.1222643    1.1776652 
 2095000    1.0081623 0.00013197243   0.60363116 0.0039766903            0   0.59965447    1.4933404    2.0969716      8.85396 
 2100000    1.0985573 -1.2965806e-05    0.4880326  0.003376148            0   0.48465645     1.627238    2.1152706    1.4514214 
 2105000    1.0617383 -0.00010606422   0.54166064  0.010116992            0   0.53154364    1.5726999    2.1143605   -3.3161273 
 2110000    1.1398702 3.9627538e-05   0.44770428  0.019456078            0   0.42824821    1.6884328    2.1361371     4.165067 
 2115000    1.0702305 0.00013761197   0.57447244  0.056382204            0   0.51809024    1.5852789    2.1597513     9.205484 
 2120000    1.1340581 3.2279272e-05   0.48444683  0.018329272            0   0.46611756    1.6798236    2.1642705    3.8169692 
 2125000    1.1373125 6.2017797e-05   0.48382532 0.0027481508            0   0.48107717    1.6846442    2.1684695    5.3437807 
 2130000    1.0238148 0.00010568596   0.65278911  0.011364359            0   0.64142475    1.5165257    2.1693148    7.5804358 
 2135000    1.0676487 6.8410319e-05   0.58351191  0.017935194            0   0.56557672    1.5814546    2.1649665    5.6675748 
 2140000     1.111149 -1.1467406e-06    0.4867836 0.0099142462            0   0.47686935    1.6458894     2.132673    2.0739599 
 2145000    1.1665958 -0.00016538112   0.43092022  0.015065091            0   0.41585513      1.72802    2.1589402   -6.3085731 
 2150000    1.1637365 -0.00011633564   0.46101113  0.025562091            0   0.43544904    1.7237847    2.1847958    -3.771589 
 2155000    1.0857696 -4.3341027e-05   0.58142407  0.050068734            0   0.53135534    1.6082962    2.1897203 -0.029340296 
 2160000    1.0682649 -0.00017022925   0.60821647   0.01735046            0   0.59086601    1.5823674    2.1905838   -6.5251538 
 2165000    1.1504129 -0.00013624698   0.48136239 0.0054442753            0   0.47591812    1.7040491    2.1854115   -4.7904339 
 2170000    1.2078029 9.0612897e-06    0.3711183 0.0020741003            0    0.3690442     1.789058    2.1601763    2.6241143 
 2175000    1.1729255 6.6394248e-06   0.42916348 0.0088115552            0   0.42035193    1.7373959    2.1665594    2.5064979 
 2180000    1.0690961 -3.7112439e-05   0.59355348  0.019118877            0   0.57443461    1.5835986     2.177152   0.27699515 
 2185000    1.0570069 -5.6645311e-05   0.61542413  0.035639478            0   0.57978465    1.5656914    2.1811156  -0.71912432 
 2190000    1.1061104 2.1669775e-05    0.5562328  0.035546388            0   0.52068641     1.638426    2.1946588    3.3041513 
 2195000    1.0398575 6.0596521e-05    0.6168203  0.094837416            0   0.52198289     1.540289    2.1571093    5.2596511 
 2200000    1.0295909 0.00014297994   0.62551972  0.029824447            0   0.59569527    1.5250815    2.1506012    9.4711744 
 2205000    1.0697588 4.7456854e-05   0.55355092  0.013561085            0   0.53998983    1.5845802    2.1381311    4.5679221 
 2210000    1.1138675 -4.4040437e-05    0.4817277  0.013865594            0   0.46786211    1.6499163     2.131644  -0.12322638 
 2215000    1.0786099 4.4243656e-05   0.56046658 0.0040202193            0   0.55644636    1.5976909    2.1581574    4.4234326 
 2220000    1.0549003 -5.3640888e-06   0.59272616 0.0019062047            0   0.59081996     1.562571    2.1552972    1.8806559 
 2225000    1.1314198 3.6175013e-05   0.47394245  0.010937433            0   0.46300501    1.6759156     2.149858    4.0020187 
 2230000    1.0242594 -8.4338292e-06   0.66262274  0.017504554            0   0.64511818    1.5171842    2.1798069    1.7479949 
 2235000    1.0492072 9.6949902e-06   0.59371315 0.0075254292            0   0.58618772    1.5541382    2.1478514    2.6442348 
 2240000    1.0179251 2.3248206e-05   0.59379414  0.035815388            0   0.55797875    1.5078016    2.1015958    3.2919039 
 2245000     1.055256 -7.9312285e-05   0.55582222  0.032546761            0   0.52327546     1.563098    2.1189202   -1.9418688 
 2250000    1.0826787 7.1104834e-05   0.53142422  0.036743945            0   0.49468028    1.6037178    2.1351421    5.7757095 
 2255000    1.0622976 8.9616892e-05   0.55596374  0.021959866            0   0.53400388    1.5735283    2.1294921    6.7178769 
 2260000    1.0841974 7.766019e-05   0.54034558  0.017297594            0   0.52304799    1.6059674     2.146313    6.1225147 
 2265000     1.076053 -1.065702e-05   0.55607196  0.048936868            0   0.50713509    1.5939035    2.1499754     1.604336 
 2270000    1.0988458 -0.00012165881    0.5171648  0.015565517            0   0.50159928    1.6276653    2.1448301   -4.0841009 
 2275000    1.0660484 -1.3159103e-05   0.56521111  0.015063116            0   0.55014799    1.5790842    2.1442953    1.4705492 
 2280000    1.0570879 3.5894903e-05   0.57258211   0.02518463            0   0.54739748    1.5658115    2.1383936    3.9762126 
 2285000    1.1125137 -2.320838e-05   0.49036006  0.035485992            0   0.45487406    1.6479109     2.138271   0.95000192 
 2290000    1.0225078 3.4343911e-05   0.58851503  0.052016599            0   0.53649843    1.5145897    2.1031048     3.861513 
 2295000    1.0256813 6.3020133e-05   0.60720609  0.017558569            0   0.58964752    1.5192904    2.1264965    5.3531273 
 2300000   0.96175529 -4.2381687e-05   0.65397883  0.028416954            0   0.62556188       1.4246    2.0785789 -0.091363515 
 2305000   0.98089916 -3.1870715e-05   0.64583145  0.057317762            0   0.58851369    1.4529569    2.0987883   0.46700773 
 2310000    1.0780653 9.2309071e-05   0.50699659  0.020138131            0   0.48685846    1.5968843    2.1038809    6.8301053 
 2315000    1.0914202 3.871505e-05   0.50789703   0.03082767            0   0.47706936    1.6166661    2.1245632    4.1067737 
 2320000   0.99831442 -2.2053562e-05   0.64795309  0.069511186            0   0.57844191    1.4787532    2.1267063   0.99756393 
 2325000    1.0294147 3.8301336e-05    0.6376853  0.062928052            0   0.57475725    1.5248205    2.1625058    4.1235342 
 2330000    1.0692422 3.5646415e-05   0.54249234  0.029308348            0   0.51318399     1.583815    2.1263073    3.9514037 
 2335000    1.0266058 6.4520434e-06   0.61579072  0.022038481            0   0.59375224    1.5206599    2.1364506    2.4667953 
 2340000    1.0588952 7.3536136e-06    0.5502796  0.026990205            0   0.52328939    1.5684885    2.1187681    2.4952731 
 2345000    1.0198153 -2.73959e-05   0.60143724  0.061652336            0    0.5397849    1.5106015    2.1120387   0.70936864 
 2350000    1.0286218 6.4104406e-05   0.58549993   0.03497417            0   0.55052576     1.523646    2.1091459    5.3912915 
 2355000    1.0236848 0.00012265311   0.58798162  0.012764059            0   0.57521756    1.5163331    2.1043147    8.3841537 
 2360000    1.0799232 -3.6416327e-05   0.51480618  0.019605114            0   0.49520106    1.5996362    2.1144424   0.24992643 
 2365000    1.1013051 -0.00010899472   0.45661652  0.022232943            0   0.43438358    1.6313082    2.0879248   -3.4926048 
 2370000    1.0256394 -1.2788706e-05   0.57160562  0.028969467            0   0.54263616    1.5192284     2.090834    1.4360522 
 2375000    0.9978663 -7.6238878e-06   0.58623748  0.011609685            0    0.5746278    1.4780895    2.0643269    1.6739839 
 2380000    1.0720014 4.4587893e-05   0.49172067 0.0016268124            0   0.49009386    1.5879021    2.0796228    4.3625229 
 2385000    1.0292566 2.4974758e-05   0.54260074   0.02273269            0   0.51986805    1.5245864    2.0671871    3.3458947 
 2390000   0.96172325 -3.0598173e-05   0.65625466  0.068018695            0   0.58823596    1.4245526    2.0808072   0.51418076 
 2395000    1.0242208 -7.5522156e-05   0.59890891  0.051092513            0    0.5478164     1.517127    2.1160359   -1.7506984 
 2400000   0.99860937 -0.00011705154   0.63228276  0.011969235            0   0.62031353    1.4791901    2.1114729   -3.8815658 
 2405000    1.0559773 -9.8690935e-05   0.53038648 0.0095332447            0   0.52085323    1.5641663    2.0945528   -2.9584231 
 2410000    1.1301878 -5.4382977e-05   0.43620896  0.024831278            0   0.41137769    1.6740907    2.1102996  -0.67410878 
 2415000    1.0777864 7.1642325e-05   0.51355984  0.032608056            0   0.48095179    1.5964711     2.110031     5.778118 
 2420000    1.0579581 5.5286478e-05   0.55175823 0.0088333305            0    0.5429249    1.5671005    2.1188587    4.9495264 
 2425000    1.0660166 -8.0010765e-05   0.54712921  0.048469821            0   0.49865938    1.5790371    2.1261664   -1.9703848 
 2430000    1.0555906 5.3030782e-05    0.5546703  0.060457281            0   0.49421302    1.5635936    2.1182639    4.8334399 
 2435000   0.96487618 0.00012305885   0.70257862  0.042639334            0   0.65993929    1.4292228    2.1318015    8.4324145 
 2440000    1.0650875 -0.00010441521   0.54239811  0.039058684            0   0.50333943    1.5776609     2.120059   -3.2259997 
 2445000    1.0308823 -0.00010817842    0.5492931  0.039246219            0   0.51004688    1.5269943    2.0762874   -3.4624476 
 2450000    1.0642407 3.1377131e-05   0.53091055  0.010894028            0   0.52001652    1.5764065     2.107317    3.7138261 
 2455000    1.0503528 1.4156511e-05   0.54932049  0.017858177            0   0.53146231    1.5558351    2.1051556     2.829969 
 2460000    1.0470316 -6.0890198e-05   0.54295068  0.062727434            0   0.48022325    1.5509155    2.0938662   -1.0237119 
 2465000    1.0499081 2.7855288e-05   0.52916561  0.031888914            0   0.49727669    1.5551764     2.084342    3.5105327 
 2470000     1.090362 0.00012128512   0.49185493  0.007129317            0   0.48472561    1.6150988    2.1069537    8.3167516 
 2475000    1.1567603 5.1259627e-05   0.40157708  0.020303961            0   0.38127312    1.7134513    2.1150283    4.7395213 
 2480000   0.97373499 -7.4365666e-05   0.69039121  0.030293847            0   0.66009736     1.442345    2.1327362   -1.6747859 
 2485000    1.1305535 -7.8778709e-05    0.4427401 0.0027939985            0    0.4399461    1.6746324    2.1173725   -1.9160974 
 2490000    1.0772515 6.7778103e-06   0.53531203 0.0052994015            0   0.53001263    1.5956788    2.1309909    2.4780148 
 2495000    1.0004088 0.00011625992   0.63321414  0.012928878            0   0.62028526    1.4818555    2.1150696    8.0675773 
 2500000   0.98054786 3.7712252e-05   0.61903517  0.028655538            0   0.59037964    1.4524365    2.0714717     4.002339 
 2505000    1.0805405 -0.00012776797   0.45459738  0.020245326            0   0.43435205    1.6005506     2.055148   -4.4865719 
 2510000    1.0739693 -8.5927223e-05   0.47927366 0.0080296596            0     0.471244     1.590817    2.0700907   -2.3293831 
 2515000     1.017476 3.3298626e-05   0.53698159  0.010023885            0    0.5269577    1.5071363    2.0441179    3.7490076 
 2520000    1.0509467 7.3037346e-05   0.48749952 0.0096963248            0   0.47780319    1.5567147    2.0442143    5.7837264 
 2525000    1.0657613 -2.2346317e-05   0.46655895  0.018903055            0    0.4476559    1.5786589    2.0452179   0.90108643 
 2530000    1.0163307 -2.4015556e-05   0.55010151  0.011354516            0     0.538747    1.5054398    2.0555413   0.82594484 
 2535000   0.95021692 3.1048233e-05   0.62544657 0.0032354724            0   0.62221109    1.4075088    2.0329554    3.6226249 
 2540000    1.0127782 -6.2050901e-05   0.56701988  0.022404556            0   0.54461533    1.5001776    2.0671975   -1.1098086 
 2545000    1.0701454 -7.3652297e-05   0.48167381  0.046930508            0    0.4347433    1.5851529    2.0668267   -1.7041709 
 2550000    1.0814842 2.7420761e-05   0.47531126  0.022053086            0   0.45325817    1.6019485    2.0772597    3.4812027 
 2555000   0.98737893 -7.0072385e-06   0.61132277  0.016869157            0   0.59445361     1.462555    2.0738778    1.7151072 
 2560000    1.0060396 -6.5778981e-05   0.58125085  0.036736148            0    0.5445147    1.4901962     2.071447   -1.2964368 
 2565000    1.0001968 -6.2446197e-05   0.59570549  0.036127054            0   0.55957844    1.4815415     2.077247   -1.1199983 
 2570000    0.9614257 -6.5528335e-05   0.64677821  0.027630503            0   0.61914771    1.4241118      2.07089   -1.2841607 
 2575000    1.0260323 -7.3389775e-05   0.59098846     0.051843            0   0.53914546    1.5198104    2.1107988   -1.6467576 
 2580000    1.0177192 -5.0261937e-05    0.6197126  0.045487731            0   0.57422487    1.5074966    2.1272092  -0.44620195 
 2585000   0.99773384 -5.5197016e-05   0.61881194  0.011421588            0   0.60739035    1.4778932    2.0967052  -0.72938201 
 2590000    1.0165243 -4.7899914e-05   0.57699145 0.0018092343            0   0.57518222    1.5057266    2.0827181   -0.3697575 
 2595000    1.0280508 -4.38689e-05   0.55495739 0.0010816259            0   0.55387576    1.5228003    2.0777577  -0.16832999 
 2600000    1.0254899 -1.1707623e-05   0.55372397  0.004560504            0   0.54916346    1.5190069    2.0727308    1.4733005 
 2605000   0.98305525 3.5767942e-05   0.59700967 0.0053929257            0   0.59161675    1.4561506    2.0531603    3.8844789 
 2610000    1.0254418 -2.2087334e-06   0.54705273  0.026153453            0   0.52089928    1.5189357    2.0659885    1.9529013 
 2615000   0.97733697 8.2531192e-05   0.61879955  0.034882734            0   0.58391682    1.4476804    2.0664799     6.292077 
 2620000   0.93434409 4.5692523e-05   0.71373729   0.03238982            0   0.68134747    1.3839972    2.0977345    4.4371916 
 2625000   0.93540633 -8.1151798e-05   0.70161862  0.033511294            0   0.66810732    1.3855706    2.0871892   -2.0677828 
 2630000   0.94089864 -2.1726671e-05   0.70034199  0.047531557            0   0.65281043    1.3937061    2.0940481   0.98164255 
 2635000   0.98117723 3.1750407e-05    0.6162761  0.026129629            0   0.59014647    1.4533688    2.0696449    3.6952657 
 2640000   0.99349269 -5.0620929e-05   0.63764183  0.010521262            0   0.62712057     1.471611    2.1092529  -0.48253867 
 2645000    1.0371722 -0.00017230004   0.57587779  0.021684735            0   0.55419305    1.5363114    2.1121892   -6.7095729 
 2650000    1.0710769 -0.00010754144   0.54421482 0.0032503823            0   0.54096444    1.5865326    2.1307475   -3.3753743 
 2655000    1.0841815 -1.9953316e-05   0.53426212 0.0052189745            0   0.52904314    1.6059438     2.140206    1.1185962 
 2660000    1.0416576 -2.8174602e-05   0.58088632  0.015164338            0   0.56572198    1.5429554    2.1238417   0.68130204 
 2665000    1.0325761 3.568747e-05   0.61328184  0.010803691            0   0.60247815    1.5295033    2.1427852    3.9699837 
 2670000    1.1265125 9.3815928e-05   0.45902349 0.0079221517            0   0.45110133    1.6686466    2.1276701    6.9310457 
 2675000    1.0143617 5.8386377e-05   0.65175519 0.0014392904            0    0.6503159    1.5025232    2.1542784    5.1436609 
 2680000    1.0017113 0.00010186066   0.62394709 0.0014288105            0   0.62251828    1.4837849     2.107732    7.3229979 
 2685000    1.0478849 1.545724e-05   0.55835793 0.0027494334            0    0.5556085    1.5521794    2.1105374    2.9019481 
 2690000    1.0771982 9.4099998e-06   0.51113493  0.037560894            0   0.47357404    1.5955999    2.1067348    2.5885268 
 2695000   0.95694049 7.6388078e-05    0.6591118     0.100954            0    0.5581578    1.4174681    2.0765799    5.9876495 
 2700000   0.90308319 5.4482478e-05    0.7276616  0.044182865            0   0.68347873     1.337692    2.0653536    4.8548565 
 2705000    0.9818304 -6.4542757e-05   0.58812642  0.016197916            0   0.57192851    1.4543363    2.0424627   -1.2621264 
 2710000   0.96699082 -8.4885193e-05   0.60556427 0.0066419297            0   0.59892234    1.4323552    2.0379194   -2.3082025 
 2715000    1.0585021 -0.00012518153   0.50016285 0.0040255217            0   0.49613733    1.5679062    2.0680691   -4.3412252 
 2720000    1.0234859 -9.7694006e-05   0.54918489  0.010736001            0   0.53844889    1.5160385    2.0652234   -2.9367097 
 2725000    1.0128053 -2.0866944e-05   0.57184995  0.045753561            0   0.52609639    1.5002178    2.0720678    1.0036802 
 2730000   0.98362827 1.9773949e-05   0.58614452  0.075887835            0   0.51025669    1.4569994    2.0431439    3.0555701 
 2735000    1.0168004 0.00011796041   0.52707787  0.050305208            0   0.47677266    1.5061356    2.0332135    8.0727866 
 2740000    1.0281491 -2.5906033e-05   0.49699618  0.038181379            0    0.4588148    1.5229458     2.019942   0.69355309 
 2745000   0.95379915 -8.6772321e-05    0.5813578 0.0053072867            0   0.57605052     1.412815    1.9941728   -2.4485701 
 2750000   0.99721672 -1.5219199e-05   0.53712172 0.00018710061            0   0.53693462    1.4771273     2.014249     1.235026 
 2755000   0.98109894 -4.3494293e-05    0.5401069 0.00055349609            0   0.53955341    1.4532528    1.9933597   -0.2335481 
 2760000   0.94124848 -1.4433465e-05   0.57054434  0.011418863            0   0.55912547    1.3942243    1.9647686    1.2257752 
 2765000   0.93117983 -4.7345278e-05   0.59709713   0.03655078            0   0.56054635    1.3793101    1.9764073  -0.44767095 
 2770000   0.97944906 -2.9044037e-05   0.53233492  0.020819613            0   0.51151531    1.4508089    1.9831438   0.49608912 
 2775000   0.96249099 1.0375709e-05   0.54402955  0.010800515            0   0.53322903    1.4256898    1.9697193    2.5009556 
 2780000    1.0252694 0.0001067357   0.43855131  0.017101626            0   0.42144969    1.5186803    1.9572316    7.4220995 
 2785000    1.0106306 0.00015403227   0.49192725   0.02238243            0   0.46954482    1.4969966    1.9889238    9.8753759 
 2790000   0.95573773 -4.6801284e-05   0.55529586  0.024724721            0   0.53057114    1.4156865    1.9709824  -0.42524336 
 2795000   0.91301881 -8.1940672e-06   0.62286861  0.060982574            0   0.56188604    1.3524091    1.9752777    1.5557415 
 2800000   0.98176709 -4.0047874e-05   0.53572982  0.052646896            0   0.48308293    1.4542425    1.9899723 -0.060478833 
 2805000    0.9383185 6.6387206e-05   0.60878394  0.014766179            0   0.59401776    1.3898843    1.9986682    5.3976932 
 2810000    1.0609819 -2.5535633e-06   0.46240777  0.010460515            0   0.45194725    1.5715794    2.0339872    1.9032447 
 2815000    1.1123361 3.5280194e-05   0.40742379 0.0048844617            0   0.40253933    1.6476479    2.0550717    3.8614176 
 2820000    1.0642104 1.245635e-05   0.44143509 0.0094645756            0   0.43197051    1.5763617    2.0177968    2.6555619 
 2825000    1.0197606 -4.9707597e-05   0.49952119   0.02049976            0   0.47902143    1.5105203    2.0100415  -0.53498745 
 2830000   0.94173386 0.00011599441   0.61734991  0.022706482            0   0.59464343    1.3949433    2.0122932    7.9512068 
 2835000   0.96296885 -6.4272768e-05   0.56309442 0.0080197096            0   0.55507471    1.4263976     1.989492   -1.3012737 
 2840000   0.99968541 3.5066611e-05   0.50719387  0.012937281            0   0.49425658     1.480784    1.9879779    3.7833884 
 2845000   0.89535712 4.9753083e-06   0.67222862  0.042678957            0   0.62954967    1.3262477    1.9984764    2.2532121 
 2850000    1.0193485 -4.1588186e-05   0.51553735  0.032960158            0   0.48257719    1.5099099    2.0254472  -0.10386788 
 2855000   0.93993691 0.00019512526   0.63115445  0.051095793            0   0.58005866    1.3922815     2.023436    12.013849 
 2860000    1.0543999 3.764852e-05   0.46325482  0.023489394            0   0.43976542    1.5618298    2.0250846    3.9526888 
 2865000    1.0059808 -0.00014816825   0.54497057  0.020277721            0   0.52469285    1.4901091    2.0350797    -5.551135 
 2870000   0.92429393 -7.3860727e-05   0.64741105  0.032281787            0   0.61512927    1.3691104    2.0165214   -1.7651478 
 2875000    1.0486428 -2.4943046e-05   0.46872808 0.0074509083            0   0.46127717    1.5533021    2.0220302   0.74494622 
 2880000     1.056192 3.7977945e-05   0.46231274 0.0046369882            0   0.45767575    1.5644844    2.0267971     3.971268 
 2885000   0.96867168 0.00018122481   0.58741628  0.017217198            0   0.57019909    1.4348449    2.0222612    11.300972 
 2890000    1.0284887 0.00012571937   0.52260814  0.027134607            0   0.49547353    1.5234489     2.046057    8.4828886 
 2895000   0.99579465   2.6636e-06   0.57540332  0.055511442            0   0.51989187    1.4750208    2.0504241    2.1868005 
 2900000   0.93654185 1.6844578e-05   0.63728494  0.040028295            0   0.59725665    1.3872526    2.0245376    2.8869799 
 2905000    1.0145445 4.2091738e-05   0.52743496  0.026788701            0   0.50064626    1.5027941    2.0302291    4.1853261 
 2910000    1.0111034 0.00010402871   0.52580956  0.031538613            0   0.49427095     1.497697    2.0235065    7.3497767 
 2915000   0.96473823 2.405347e-05   0.62398101  0.015316545            0   0.60866447    1.4290185    2.0529995    3.2845372 
 2920000    1.0176087 3.3975721e-05   0.53716447   0.02070166            0   0.51646281    1.5073328    2.0444973    3.7840542 
 2925000    1.0318329 1.3595924e-05   0.51029726  0.007051852            0   0.50324541    1.5284024    2.0386997     2.734811 
 2930000    1.0578394 -0.00012602824   0.48424709  0.017875133            0   0.46637195    1.5669246    2.0511717   -4.4014745 
 2935000    1.1139623 1.4616312e-05   0.40809376 0.0059272968            0   0.40216647    1.6500566    2.0581504    2.8065056 
 2940000   0.97259133 5.5407343e-05   0.58367119  0.011001113            0   0.57267008    1.4406509    2.0243221    4.8611781 
 2945000   0.97409003 -2.1283235e-05   0.57682441  0.028954475            0   0.54786993    1.4428709    2.0196953   0.92999362 
 2950000   0.95952403 1.9341015e-05    0.5934646  0.032288739            0   0.56117586     1.421295    2.0147596    3.0050196 
 2955000    1.0063397 6.0960308e-06    0.5005668  0.020085652            0   0.48048115    1.4906407    1.9912075    2.3033243 
 2960000   0.94284269 -6.4214638e-05   0.60106028  0.019312351            0   0.58174793    1.3965857     1.997646   -1.2901434 
 2965000   0.98580319 -5.5600871e-05   0.54822977  0.017112407            0   0.53111736     1.460221    2.0084507  -0.83831387 
 2970000   0.95161873 -7.7306175e-05   0.60983113  0.022391649            0   0.58743948    1.4095852    2.0194164   -1.9386598 
 2975000   0.95589801 -2.1256406e-05   0.63670608  0.033155121            0   0.60355096    1.4159239      2.05263   0.96430204 
 2980000   0.97401765 5.0383514e-05   0.57574763  0.021586295            0   0.55416134    1.4427636    2.0185113    4.5981472 
 2985000    0.9678902 5.4881686e-05   0.57117334  0.018713822            0   0.55245951    1.4336874    2.0048607     4.814803 
 2990000   0.98433782 9.9433344e-05   0.56332478 0.0077596948            0   0.55556508    1.4580504    2.0213752    7.1123624 
 2995000    1.0393248 4.6888447e-06   0.49736214 0.0037103058            0   0.49365183    1.5394998     2.036862    2.2769308 
[...]
19285000   0.99319199 8.6311792e-05   0.48453743  0.014117107            0   0.47042032    1.4711656    1.9557031    6.3748668 
19290000   0.93361447 1.7196688e-05   0.54580703 0.0096267719            0   0.53618026    1.3829164    1.9287235    2.8091939 
19295000   0.98996818 2.6605763e-05   0.44612373 0.0070518755            0   0.43907185    1.4663904    1.9125141    3.2747292 
19300000   0.96127551 -3.7656556e-05   0.50253742  0.015009575            0   0.48752785    1.4238894    1.9264268 -0.0015889094 
19305000   0.93742517 7.7788551e-05   0.52601694  0.010470225            0   0.51554672     1.388561     1.914578    5.8973518 
19310000   0.97441509 0.00011571811   0.41969242 0.00079548747            0   0.41889693    1.4433524    1.8630448    7.7878119 
19315000   0.89827355 -3.6930487e-05   0.53397602 0.00037085916            0   0.53360516    1.3305677    1.8645437 -0.026297243 
19320000   0.91460612 -3.0218938e-05   0.50184516 0.0061803392            0   0.49566482    1.3547603    1.8566055   0.30939583 
19325000   0.94696174 -1.0556236e-05   0.48734985  0.026773829            0   0.46057602    1.4026871    1.8900369    1.3495576 
19330000   0.88462212 -1.3972279e-05   0.57760932  0.052917976            0   0.52469135    1.3103465    1.8879558    1.1725751 
19335000   0.91161562 -3.7774047e-05   0.53092609  0.027003887            0    0.5039222    1.3503306    1.8812567 -0.052774496 
19340000    1.0016852 -0.00012262431   0.38725375 0.0060551662            0   0.38119858    1.4837462    1.8709999   -4.4073648 
19345000   0.88964696 -4.1692579e-05   0.50891379  0.012227969            0   0.49668583    1.3177896    1.8267034  -0.30795669 
19350000   0.86416624 1.3626343e-05   0.55296002  0.023055155            0   0.52990487    1.2800462    1.8330063     2.530675 
19355000   0.89779315 2.0865606e-05   0.47450152 0.0081015714            0   0.46639994    1.3298561    1.8043576    2.8726766 
19360000    0.8457691 4.2921187e-05   0.55053707 0.0043785298            0   0.54615854    1.2527955    1.8033325    4.0008973 
19365000    0.9150954 -4.6548904e-05   0.41425225 0.0068056857            0   0.40744656    1.3554851    1.7697373  -0.61356658 
19370000   0.82727528 -7.8138465e-05   0.50921526  0.010804829            0   0.49841043    1.2254015    1.7346168   -2.2660727 
19375000   0.88873211 6.6543036e-05   0.43913977  0.022421287            0   0.41671848    1.3164344    1.7555742    5.1625776 
19380000   0.90155315 0.00015386199   0.43026708  0.018094698            0   0.41217238    1.3354256    1.7656927    9.6434264 
19385000   0.86748669 7.2781658e-05   0.49581148  0.006551665            0   0.48925981    1.2849647    1.7807761     5.507197 
19390000   0.86269032 -2.6919677e-05   0.51732339  0.005515104            0   0.51180828      1.27786    1.7951834   0.41689595 
19395000   0.88074572 -9.3102213e-05   0.51347861  0.027835296            0   0.48564331    1.3046046    1.8180832   -2.9487501 
19400000   0.88475123 -3.631747e-05   0.49556281  0.030379848            0   0.46518296    1.3105378    1.8061006 -0.053353895 
19405000   0.83341005 4.3241086e-05    0.5867067  0.011049601            0    0.5756571    1.2344886    1.8211953    4.0351389 
19410000    0.9082843 -1.1300497e-05    0.4590236  0.013598308            0    0.4454253    1.3453961    1.8044197    1.2258343 
19415000   0.87696916 -6.1116723e-06    0.5529168  0.041880649            0   0.51103615    1.2990106    1.8519274    1.5390097 
19420000   0.93584474 -2.1035223e-05   0.49517853  0.011800687            0   0.48337785      1.38622    1.8813986   0.80439511 
19425000   0.90013515 -6.9125129e-05   0.56252325  0.030495587            0   0.53202766    1.3333252    1.8958484   -1.6433581 
19430000   0.93312239 -0.00010511628   0.51846659  0.034703755            0   0.48376284    1.3821875    1.9006541   -3.4812993 
19435000   0.94807943 -4.7098592e-05   0.47697646  0.033726868            0   0.44324959    1.4043427    1.8813191  -0.53012879 
19440000   0.89150468 1.7473382e-05   0.54089377  0.055304577            0    0.4855892    1.3205413    1.8614351    2.7560722 
19445000   0.92574308 0.00013610722   0.51641314  0.022460451            0   0.49395269    1.3712569    1.8876701    8.8563595 
19450000   0.92018087 0.00010634519   0.52157968  0.026534293            0   0.49504538    1.3630179    1.8845976    7.3294716 
19455000   0.96334331 -1.1133709e-05   0.44544085 0.0082535958            0   0.43718725    1.4269523    1.8723931    1.3023473 
19460000   0.91684698 5.2711693e-06   0.52167035 0.0075406576            0    0.5141297    1.3580796    1.8797499    2.1496338 
19465000   0.93257772 -6.2230361e-05   0.53343907  0.021397163            0   0.51204191    1.3813807    1.9148198   -1.2713747 
19470000   0.92594867 -4.1450275e-05   0.56635052 0.0065209511            0   0.55982956    1.3715615     1.937912   -0.1843421 
19475000   0.93545005   0.00016177   0.53221603  0.018606536            0   0.51360949    1.3856354    1.9178514    10.200475 
19480000   0.92723098 5.552849e-05    0.5640396  0.056156345            0   0.50788326    1.3734609    1.9375005    4.7805592 
19485000   0.96113702 -6.3002189e-05   0.52769634  0.022548203            0   0.50514814    1.4236842    1.9513806   -1.2743315 
19490000    0.9429873 -0.00013619138   0.52855654 0.0032495302            0   0.52530701    1.3967999    1.9253565   -5.0476421 
19495000   0.97035176 -0.00013481975   0.48169482  0.030116857            0   0.45157796    1.4373335    1.9190284   -4.9837429 
19500000   0.89747851 -3.1660759e-05   0.55765967   0.02648808            0   0.53117159      1.32939    1.8870497   0.26601886 
19505000   0.93706934 4.6005401e-05   0.49076811  0.016866713            0   0.47390139     1.388034    1.8788021    4.2342786 
19510000   0.94995643 0.00011750848   0.46810074  0.010310257            0   0.45779049     1.407123    1.8752237     7.891658 
19515000   0.96102142 -3.0891145e-05   0.46965196   0.01141246            0    0.4582395     1.423513    1.8931649   0.31153833 
19520000   0.89183745 -1.4091067e-05   0.56181317  0.024812596            0   0.53700058    1.3210342    1.8828474    1.1613848 
19525000   0.88313148 3.3819238e-05   0.59536108  0.042082325            0   0.55327876    1.3081385    1.9034996    3.6350446 
19530000   0.87743196 -6.2406544e-05   0.56886106  0.035660362            0   0.53320069    1.2996961    1.8685571   -1.3266579 
19535000   0.96409272 8.1592859e-05   0.48271408  0.026661456            0   0.45605263    1.4280623    1.9107764    6.0883308 
19540000   0.98834595 0.00015937424   0.45717805 0.0068669101            0   0.45031114    1.4639874    1.9211655    10.081126 
19545000   0.97130885 0.0001350323   0.49778474  0.011538522            0   0.48624622    1.4387512     1.936536    8.8501896 
19550000    1.0262519 0.00018634617    0.4242677  0.021480699            0     0.402787    1.5201356    1.9444033    11.485327 
19555000   0.99070372 5.5517903e-05    0.4538667   0.01596485            0   0.43790184    1.4674799    1.9213466    4.7638632 
19560000   0.98480888 -5.5410256e-05   0.46719582  0.027496566            0   0.43969926    1.4587481     1.925944  -0.91106112 
19565000   0.98296699 -8.463852e-05    0.4382417  0.029201484            0   0.40904022    1.4560199    1.8942616   -2.4392307 
19570000   0.93056176 -2.6385476e-05   0.49519564  0.011616543            0    0.4835791    1.3783946    1.8735902   0.52265386 
19575000   0.95185883 -2.5090208e-06   0.47664291 0.0083927654            0   0.46825014    1.4099409    1.8865838    1.7581219 
19580000   0.87124096 0.00010270473   0.57646007  0.042497355            0   0.53396271    1.2905257    1.8669857    7.1254678 
19585000   0.89520085 0.00010770387   0.52901433  0.026828723            0    0.5021856    1.3260163    1.8550306    7.3694686 
19590000   0.92125228 3.4108464e-05    0.5009455  0.033424616            0   0.46752088    1.3646049    1.8655504    3.6119038 
19595000   0.95895144 -4.538991e-05   0.47651784  0.039964567            0   0.43655327    1.4204468    1.8969647  -0.42699874 
19600000    0.9127597 -4.7767968e-05   0.55057732   0.03757187            0   0.51300545    1.3520253    1.9026026  -0.54311734 
19605000   0.96785551 3.1224051e-05   0.48702739  0.022997062            0   0.46403033     1.433636    1.9206634    3.5193348 
19610000   0.97667818 2.0016883e-05   0.47428135  0.011056428            0   0.46322492    1.4467046    1.9209859    2.9458503 
19615000   0.97917672 4.4656552e-05   0.45014643  0.027846304            0   0.42230013    1.4504055    1.9005519    4.1869674 
19620000   0.94482619 0.00013816946   0.51906757  0.018680757            0   0.50038682    1.3995238    1.9185914    8.9928679 
19625000   0.98383085 6.7357108e-05   0.45372536  0.031349067            0   0.42237629    1.4572994    1.9110248    5.3597087 
19630000   0.89931283 -0.00010222958   0.56116208 0.0090682027            0   0.55209388    1.3321071    1.8932692   -3.3408855 
19635000   0.96470261 -7.4852248e-05   0.45651381 0.0053858827            0   0.45112793    1.4289657    1.8854796   -1.9469556 
19640000    1.0292878 -3.7716581e-05   0.34809863  0.012997863            0   0.33510077    1.5246325    1.8727311 -0.058357811 
19645000   0.92838403 5.7275129e-05    0.4923379  0.015288303            0   0.47704959    1.3751688    1.8675067    4.7999934 
19650000   0.93266272 0.00014156745   0.48859542  0.024913766            0   0.46368165    1.3815067    1.8701021    9.1183556 
19655000   0.92010676 0.00012893637   0.50663535 0.0078197409            0    0.4988156    1.3629081    1.8695435    8.4710854 
19660000   0.93042904 5.639749e-05   0.53935222 0.0029626678            0   0.53638955     1.378198    1.9175502    4.8051017 
19665000    1.0418171 1.9688491e-05   0.37745322  0.010110508            0   0.36734271    1.5431915    1.9206447    2.9286955 
19670000   0.94640159 6.6654095e-06   0.52104029  0.022218689            0    0.4988216    1.4018574    1.9228977    2.2641666 
19675000    0.9834377 -2.7173078e-05   0.46863152  0.021104872            0   0.44752665    1.4567171    1.9253486   0.53408701 
19680000   0.91134529 -0.00012054921   0.53828841   0.03897843            0   0.49930998    1.3499302    1.8882186   -4.2839009 
19685000   0.91408753 -2.0288842e-05   0.53062885  0.024224097            0   0.50640476    1.3539922     1.884621   0.84583232 
19690000   0.97613926 5.398631e-05   0.41409352  0.018827363            0   0.39526616    1.4459063    1.8599998    4.6240989 
19695000   0.97616038 -3.9271191e-05   0.41657889  0.046251829            0   0.37032706    1.4459376    1.8625164  -0.14816852 
19700000   0.93579153 -0.00012075929   0.47657079  0.042103229            0   0.43446756    1.3861412     1.862712   -4.3201636 
19705000   0.93971285 -8.3565097e-05   0.48011245  0.023239814            0   0.45687264    1.3919497    1.8720621   -2.4064708 
19710000   0.94769455 4.2984343e-05   0.48608257  0.018781557            0   0.46730102    1.4037726    1.8898551    4.0906535 
19715000   0.88967149 0.00014955566   0.56987122   0.02036586            0   0.54950536    1.3178259    1.8876971    9.5449468 
19720000    1.0201865 0.00012359721   0.38236971  0.020388339            0   0.36198137    1.5111513     1.893521    8.2216982 
19725000   0.96997715 -1.9707909e-05   0.46469376  0.036906196            0   0.42778757    1.4367787    1.9014724    0.8924275 
19730000   0.90511676 -6.4888849e-06   0.56096129  0.033027819            0   0.52793347    1.3407042    1.9016655    1.5694346 
19735000   0.97923639 2.3421025e-05   0.49289051  0.032904059            0   0.45998645    1.4504939    1.9433844    3.1425409 
19740000    0.9327906 -3.453493e-05   0.54185709  0.037250833            0   0.50460625    1.3816961    1.9235532   0.15536475 
19745000   0.96005965 3.8448607e-05   0.49094937  0.037612812            0   0.45333656    1.4220884    1.9130377    3.8816064 
19750000   0.95306424 6.9530912e-05   0.48388715  0.013826217            0   0.47006093    1.4117264    1.8956136    5.4555962 
19755000   0.95045906 -3.3642109e-05   0.48634295  0.011561196            0   0.47478176    1.4078675    1.8942104   0.17173447 
19760000   0.93459771 -8.7772931e-05   0.50589257  0.043085457            0   0.46280712    1.3843729    1.8902654   -2.6037086 
19765000    1.0049387 -9.5460526e-05   0.39460985  0.027968639            0   0.36664121    1.4885654    1.8831753   -3.0044037 
19770000    0.9369506 -9.0422849e-05   0.48903181 0.0030489028            0   0.48598291    1.3878581    1.8768899     -2.75276 
19775000   0.97578191 -4.237353e-05   0.45949889  0.010424403            0   0.44907449     1.445377    1.9048759  -0.26464888 
19780000   0.89093974 -7.8991701e-05    0.5907016  0.028118757            0   0.56258284    1.3197045    1.9104061    -2.133969 
19785000    0.9257707 -7.0680973e-05   0.52618202  0.039693242            0   0.48648878    1.3712979    1.8974799    -1.721386 
19790000   0.96513464 8.3518582e-05    0.4461299  0.015840279            0   0.43028962    1.4296057    1.8757356     6.151887 
19795000   0.99368917 7.8027813e-05   0.43772279 0.0032582968            0   0.43446449    1.4719021    1.9096249    5.9046489 
19800000   0.93611282 7.4970792e-05   0.50904745 0.0017372298            0   0.50731022    1.3866171    1.8956646    5.7341691 
19805000   0.95620093 -8.912751e-06   0.46957545 0.0013609688            0   0.46821448    1.4163726    1.8859481    1.4296152 
19810000    1.0370899 -5.1686055e-05    0.3633553 0.0010037948            0   0.36235151    1.5361894    1.8995447  -0.74678132 
19815000   0.98521642 -1.6969485e-05   0.43950064 0.0070322333            0    0.4324684    1.4593518    1.8988525    1.0300148 
19820000   0.85988151 -0.00010593678   0.58806146  0.014767692            0   0.57329377    1.2736995    1.8617609   -3.5622023 
19825000   0.99619397 3.5183181e-05   0.39248556 0.0028671762            0   0.38961839    1.4756123    1.8680979    3.6694767 
19830000   0.99142387 5.709734e-05    0.4097519 0.0073521227            0   0.40239978    1.4685466    1.8782985    4.8016823 
19835000   0.90293312 -9.1975097e-05   0.51906101  0.027743025            0   0.49131798    1.3374697    1.8565307   -2.8525943 
19840000   0.93205945 -6.0139819e-05    0.4816581  0.037019486            0   0.44463862    1.3806131    1.8622712   -1.2168876 
19845000   0.94973206 -1.8212585e-05   0.48211406   0.01381481            0   0.46829925    1.4067906    1.8889047   0.95642035 
19850000   0.98494013 -2.5276265e-05   0.43305154  0.016657693            0   0.41639385    1.4589426    1.8919941   0.59784936 
19855000   0.95521162 2.4291004e-05   0.50012514 0.0052174483            0   0.49490769    1.4149072    1.9150323    3.1587318 
19860000   0.94322472 -3.4130073e-05   0.51182971  0.062835172            0   0.44899454    1.3971516    1.9089813    0.1615216 
19865000    1.0142812 -0.0001063516   0.40505175  0.027466446            0   0.37758531     1.502404    1.9074558   -3.5377462 
19870000   0.91528069 -6.3647671e-05   0.56162987  0.036542581            0   0.52508729    1.3557595    1.9173894   -1.3413714 
19875000     0.878242 -8.2520164e-05   0.62333033  0.022549948            0   0.60078039     1.300896    1.9242263   -2.3008061 
19880000    1.0193254 -3.3874551e-05   0.42436512  0.023097182            0   0.40126794    1.5098758    1.9342409   0.19986388 
19885000   0.99497268 -0.00012357594   0.46291449 0.0026449532            0   0.46026954    1.4738033    1.9367178   -4.3903704 
19890000    0.9653695 5.6145064e-05   0.49239996 0.0089907802            0   0.48340918    1.4299536    1.9223535    4.7969808 
19895000   0.93747878 0.00019940899    0.5129227  0.020200402            0   0.49272229    1.3886405    1.9015631    12.111303 
19900000    1.0285671 -2.3284765e-06   0.41203044  0.017896113            0   0.39413433     1.523565    1.9355954    1.8163775 
19905000   0.97613809 -5.268461e-05   0.49939549  0.026564342            0   0.47283115    1.4459045       1.9453  -0.75215203 
19910000     1.021221 8.6783888e-05   0.43527319  0.020600436            0   0.41467275    1.5126836    1.9479568    6.3912918 
19915000    0.9751882 7.5781063e-05   0.50038042  0.021594229            0   0.47878619    1.4444975    1.9448779    5.8248684 
19920000    1.0138693 2.8662873e-07   0.45228779  0.013841863            0   0.43844592    1.5017939    1.9540817    1.9687571 
19925000    1.0409311 -9.2629277e-05   0.42322115  0.024395903            0   0.39882524    1.5418792    1.9651004   -2.7775186 
19930000    0.9573446 -0.00011804973   0.53659747  0.024509068            0   0.51208841    1.4180667    1.9546642   -4.0894823 
19935000    1.0266668 0.0001492021   0.43545398   0.03228677            0   0.40316721    1.5207503    1.9562042     9.595352 
19940000   0.99158212 0.00012376652   0.45951072  0.013825314            0   0.44568541     1.468781    1.9282917    8.2651376 
19945000    1.0171278 -4.3220881e-05   0.40413096  0.014423261            0   0.38970769    1.5066206    1.9107515   -0.3021576 
19950000   0.94727334 6.1042917e-06   0.48887944  0.021756903            0   0.46712254    1.4031486    1.8920281    2.2045678 
19955000    1.0228526 2.4174272e-05    0.3970595  0.014290614            0   0.38276888    1.5151005      1.91216    3.1498827 
19960000   0.94339748 4.2575561e-05   0.50160906  0.014068783            0   0.48754027    1.3974075    1.8990166    4.0788853 
19965000    0.9261793 8.3104343e-05   0.51887862  0.010187282            0   0.50869134    1.3719031    1.8907817    6.1457241 
19970000   0.93189012 0.00014607066    0.5027635 0.0023584834            0   0.50040502    1.3803622    1.8831257    9.3619433 
19975000    1.0374884 0.00015741696   0.34437038 0.0068521213            0   0.33751826    1.5367796      1.88115    9.9408982 
19980000   0.97034385 -4.9472388e-05    0.4684054  0.045554407            0     0.422851    1.4373218    1.9057272  -0.62725902 
19985000   0.95921766 -0.00013996153   0.47173338  0.036427478            0    0.4353059    1.4208412    1.8925745   -5.2734558 
19990000   0.98122187 -6.9145059e-05   0.42472302 0.0084022358            0   0.41632078    1.4534349    1.8781579   -1.6620691 
19995000    1.0069372 4.1416074e-05   0.37975594  0.044236395            0   0.33551955    1.4915257    1.8712816    3.9917847 
20000000   0.84770857 0.00010806783   0.60773911  0.015926718            0   0.59181239    1.2556683    1.8634074    7.3964801 
Loop time of 204.767 on 1 procs for 20000000 steps with 80 atoms

Performance: 84388.727 tau/day, 97672.138 timesteps/s
98.5% CPU use with 1 MPI tasks x no OpenMP threads

MPI task timing breakdown:
Section |  min time  |  avg time  |  max time  |%varavg| %total
---------------------------------------------------------------
Pair    | 9.2038     | 9.2038     | 9.2038     |   0.0 |  4.49
Bond    | 26.412     | 26.412     | 26.412     |   0.0 | 12.90
Neigh   | 23.265     | 23.265     | 23.265     |   0.0 | 11.36
Comm    | 55.644     | 55.644     | 55.644     |   0.0 | 27.17
Output  | 0.53539    | 0.53539    | 0.53539    |   0.0 |  0.26
Modify  | 82.151     | 82.151     | 82.151     |   0.0 | 40.12
Other   |            | 7.555      |            |       |  3.69

Nlocal:        80.0000 ave          80 max          80 min
Histogram: 1 0 0 0 0 0 0 0 0 0
Nghost:        0.00000 ave           0 max           0 min
Histogram: 1 0 0 0 0 0 0 0 0 0
Neighs:        27.0000 ave          27 max          27 min
Histogram: 1 0 0 0 0 0 0 0 0 0

Total # of neighbors = 27
Ave neighs/atom = 0.3375
Ave special neighs/atom = 5.8500000
Neighbor list builds = 3922
Dangerous builds = 0
write_restart restart.equil
System init for write_restart ...
WARNING: Communication cutoff 1.4200000000000002 is shorter than a bond length based estimate of 1.8. This may lead to errors. (../comm.cpp:667)
#--------------End of Input file ------------------
Total wall time: 0:03:24
