LAMMPS (29 Oct 2020)
###################### polyelectrolyte complexation ######################
clear

#Initialization
#------------------------------------
units				lj
dimension			3
atom_style			full
boundary			p p p

#Atom Definition
#-------------------------------------
read_data			data.complexation
Reading data file ...
  orthogonal box = (-120.00000 -120.00000 -120.00000) to (120.00000 120.00000 120.00000)
  1 by 1 by 1 MPI processor grid
  reading atoms ...
  200 atoms
  scanning bonds ...
  1 = max bonds/atom
  reading bonds ...
  199 bonds
Finding 1-2 1-3 1-4 neighbors ...
  special bond factors lj:    0.0      0.0      0.0     
  special bond factors coul:  0.0      0.0      0.0     
     2 = max # of 1-2 neighbors
     2 = max # of 1-3 neighbors
     4 = max # of 1-4 neighbors
     6 = max # of special neighbors
  special bonds CPU = 0.000 seconds
  read_data CPU = 0.003 seconds

#Force definition
#----------------------------------------------
#Bond definition
bond_style			harmonic
bond_coeff			1 5000 1
#Pair definition
special_bonds	lj 0 1 1
Finding 1-2 1-3 1-4 neighbors ...
  special bond factors lj:    0.0      1.0      1.0     
  special bond factors coul:  0.0      0.0      0.0     
     2 = max # of 1-2 neighbors
     2 = max # of 1-3 neighbors
     4 = max # of 1-4 neighbors
     6 = max # of special neighbors
  special bonds CPU = 0.000 seconds
pair_style		 lj/cut 1.12
pair_modify 		 shift yes
pair_coeff	1 1 1 1 1.12

#Timestep etc
#--------------------------------------------
timestep		1e-05
run_style		verlet
velocity		all	create	1	13

#Fix
#---------------------------------------
group polymers type 1
200 atoms in group polymers
fix 1 all nve
fix 2 all langevin 1	1	10	13
fix 3 polymers recenter INIT INIT INIT units box

#Dump
#------------------------------------------------
compute  1 all gyration
variable  myRg2 equal c_1
variable  i equal step
fix  mythermofile all print 5000 "$i ${myRg2}" file radius_of_gyration.dat screen no

thermo_style		 custom step temp press pe evdwl ecoul ebond ke etotal enthalpy
thermo 	5000
dump	3 all custom 5000 dump.lammpstrj id mol type xu yu zu
run		20000000
Neighbor list info ...
  update every 1 steps, delay 10 steps, check yes
  max neighbors/atom: 2000, page size: 100000
  master list distance cutoff = 1.42
  ghost atom cutoff = 1.42
  binsize = 0.71, bins = 339 339 339
  1 neighbor lists, perpetual/occasional/extra = 1 0 0
  (1) pair lj/cut, perpetual
      attributes: half, newton on
      pair build: half/bin/newton
      stencil: half/bin/3d/newton
      bin: standard
WARNING: Communication cutoff 1.4200000000000002 is shorter than a bond length based estimate of 1.8. This may lead to errors. (../comm.cpp:667)
Per MPI rank memory allocation (min/avg/max) = 165.7 | 165.7 | 165.7 Mbytes
Step Temp Press PotEng E_vdwl E_coul E_bond KinEng TotEng Enthalpy 
       0            1 1.4395255e-05            0            0            0            0       1.4925       1.4925       2.4875 
    5000   0.79368843 -0.00023774726   0.34456939            0            0   0.34456939      1.18458    1.5291494   -14.903941 
   10000   0.40702276 -0.00054737185   0.93756894            0            0   0.93756894   0.60748147    1.5450504   -36.289292 
   15000   0.67621544 -0.00029706504   0.53265705            0            0   0.53265705    1.0092515    1.5419086   -18.991227 
   20000    0.7238069 -0.00020981162   0.47149293            0            0   0.47149293    1.0802818    1.5517747   -12.950404 
   25000   0.54038032 -0.00044979753   0.74663123            0            0   0.74663123   0.80651763    1.5531489   -29.536856 
   30000   0.65866884 -0.00036356708    0.5800946            0            0    0.5800946   0.98306324    1.5631578   -23.566599 
   35000   0.81177972 -0.00015512593   0.36008406            0            0   0.36008406    1.2115812    1.5716653    -9.150639 
   40000   0.68166569 -0.00031262453   0.55991281            0            0   0.55991281     1.017386    1.5772989   -20.031309 
   45000   0.61209208 -0.00039990756   0.67648979            0            0   0.67648979   0.91354743    1.5900372   -26.051574 
   50000   0.74930545 -0.00024603154    0.4645007            0            0    0.4645007    1.1183384    1.5828391   -15.422861 
   55000    0.6860534 -0.00022115561   0.54422914            0            0   0.54422914    1.0239347    1.5681638   -13.718112 
   60000    0.6909401 -0.00025275441   0.53213228            0            0   0.53213228    1.0312281    1.5633604   -15.907024 
   65000   0.72167346 -0.00031852024   0.48660838            0            0   0.48660838    1.0770976     1.563706   -20.452413 
   70000   0.73844345 -0.00021600382   0.48514794            0            0   0.48514794    1.1021269    1.5872748   -13.342909 
   75000   0.75002844 -0.00015700757   0.46032665            0            0   0.46032665    1.1194174    1.5797441   -9.2726194 
   80000   0.76843864 -0.00019990474   0.43157025            0            0   0.43157025    1.1468947    1.5784649   -12.238951 
   85000   0.75320745 -0.00026676097   0.45879156            0            0   0.45879156    1.1241621    1.5829537   -16.855565 
   90000   0.75049331 -0.0001589704   0.46501134            0            0   0.46501134    1.1201113    1.5851226   -9.4029116 
   95000     0.763473 -0.00013280605    0.4426883            0            0    0.4426883    1.1394834    1.5821717   -7.5973825 
  100000   0.79337812 -0.00014341234   0.39968982            0            0   0.39968982    1.1841168    1.5838067   -8.3288544 
  105000   0.78170007 -0.00013646018   0.41996771            0            0   0.41996771    1.1666874    1.5866551   -7.8454723 
  110000   0.76111257 -0.00021033371   0.44291185            0            0   0.44291185    1.1359605    1.5788724   -12.959394 
  115000   0.80464404 -0.00014772855   0.38350206            0            0   0.38350206    1.2009312    1.5844333   -8.6265641 
  120000   0.84317353 -6.8810299e-05   0.33886346            0            0   0.33886346    1.2584365       1.5973   -3.1588679 
  125000   0.83611266 -0.00012679117   0.34779682            0            0   0.34779682    1.2478981     1.595695   -7.1681107 
  130000    0.7873329 -0.00015504846   0.42993955            0            0   0.42993955    1.1750944    1.6050339   -9.1119157 
  135000   0.81807724 -7.5148073e-05   0.38170745            0            0   0.38170745    1.2209803    1.6026877   -3.5915471 
  140000    0.8483157 -5.6436594e-05   0.34727394            0            0   0.34727394    1.2661112    1.6133851   -2.2875123 
  145000   0.83531278 -8.8974235e-05   0.35074733            0            0   0.35074733    1.2467043    1.5974516   -4.5524475 
  150000   0.82660849 -0.00010264379   0.36287421            0            0   0.36287421    1.2337132    1.5965874   -5.4981511 
  155000   0.87139816 -8.1239626e-05   0.30207205            0            0   0.30207205    1.3005618    1.6026338   -4.0126491 
  160000   0.84244731 -4.3072298e-05   0.33761915            0            0   0.33761915    1.2573526    1.5949718   -1.3821855 
  165000   0.86961926 -4.3168688e-05    0.3080964            0            0    0.3080964    1.2979067    1.6060031   -1.3778165 
  170000   0.83397988 -0.00010399444   0.37711269            0            0   0.37711269     1.244715    1.6218277   -5.5662681 
  175000   0.88322456 -4.0751204e-05   0.30792633            0            0   0.30792633    1.3182126     1.626139   -1.1905842 
  180000   0.89355517 -4.2953272e-07   0.30975816 7.9355093e-05            0   0.30967881    1.3336311    1.6433893       1.6137 
  185000   0.91052012 -3.693078e-05   0.28801492 0.00032089094            0   0.28769403    1.3589513    1.6469662  -0.90568929 
  190000   0.89492079 -6.9742229e-05   0.33549403 0.00049230707            0   0.33500173    1.3356693    1.6711633   -3.1494195 
  195000   0.87585515 -5.9461478e-05   0.37707573 0.00035517703            0   0.37672055    1.3072138    1.6842895   -2.4256878 
  200000   0.91541228 -1.3019116e-05   0.33280523 0.00020059888            0   0.33260464    1.3662528    1.6990581   0.79917679 
  205000   0.88247909 -5.6331303e-05   0.37740356            0            0   0.37740356       1.3171    1.6945036   -2.1991161 
  210000   0.91760854 -5.9712245e-05   0.30877142            0            0   0.30877142    1.3695307    1.6783022   -2.4490082 
  215000   0.90311208 -3.1354862e-05   0.32334287            0            0   0.32334287    1.3478948    1.6712376  -0.49601045 
  220000    0.9167659 -7.8011953e-06   0.30284769            0            0   0.30284769    1.3682731    1.6711208    1.1319022 
  225000   0.91077678 -4.1074454e-05   0.29451835            0            0   0.29451835    1.3593343    1.6538527   -1.1852136 
  230000   0.90969848 -2.6752591e-05   0.30678962            0            0   0.30678962     1.357725    1.6645146  -0.18462449 
  235000   0.87085281 -2.3881357e-05   0.37050794            0            0   0.37050794    1.2997478    1.6702558  0.019576341 
  240000   0.92220326 -3.2589735e-05   0.30978381            0            0   0.30978381    1.3763884    1.6861722  -0.56643032 
  245000   0.92092716 -2.0624388e-05   0.31749253 0.00012141038            0   0.31737112    1.3744838    1.6919763   0.26641859 
  250000   0.90664743 -1.3058679e-05   0.34501585 0.0011107162            0   0.34390513    1.3531713    1.6981871   0.79557122 
  255000   0.90899923 -1.8926219e-05   0.34829756 0.0035904992            0   0.34470706    1.3566814    1.7049789   0.39679868 
  260000   0.92257245 -2.4306963e-05   0.31204336 0.0010245131            0   0.31101885    1.3769394    1.6889827 0.0088854539 
  265000    0.9138042 -1.9837916e-05   0.31005652 6.7518873e-05            0     0.309989    1.3638528    1.6739093   0.30271251 
  270000   0.89968859 1.3181489e-05   0.33807311            0            0   0.33807311    1.3427852    1.6808583    2.5919628 
  275000   0.87082352 -7.4673949e-05   0.36730041            0            0   0.36730041    1.2997041    1.6670045   -3.4944588 
  280000   0.88960943 -6.1689088e-06   0.34437397            0            0   0.34437397    1.3277421    1.6721161    1.2457211 
  285000   0.89106514 2.8537857e-05   0.32895743            0            0   0.32895743    1.3299147    1.6588722    3.6314089 
  290000   0.88286965 -5.6563062e-05   0.33632812            0            0   0.33632812    1.3176829    1.6540111   -2.2556278 
  295000   0.90387702 -6.5927969e-05    0.3064323 1.9520761e-05            0   0.30641277    1.3490365    1.6554687   -2.9014725 
  300000   0.90775445 7.1790166e-05   0.31775353 0.0007322626            0   0.31702127    1.3548235    1.6725771    6.6347133 
  305000   0.88424343 -3.3923832e-05   0.32691297 0.00092717779            0   0.32598579    1.3197333    1.6466463  -0.69816897 
  310000   0.87494434 -6.2101843e-05   0.34504639 0.00067302005            0   0.34437337    1.3058544    1.6509008   -2.6415785 
  315000   0.90097409 2.0494113e-05   0.29937584 0.0001825721            0   0.29919326    1.3447038    1.6440797    3.0606328 
  320000   0.86530359 1.3941386e-05   0.34583888            0            0   0.34583888    1.2914656    1.6373045    2.6009331 
  325000   0.83357403 -3.3203328e-05   0.37617357            0            0   0.37617357    1.2441092    1.6202828  -0.67473119 
  330000    0.8400342 -4.9214132e-05   0.36890904 1.2754968e-05            0   0.36889628     1.253751    1.6226601   -1.7790207 
  335000   0.83701446 1.5604834e-05    0.3732429 0.00045017429            0   0.37279272    1.2492441     1.622487    2.7010931 
  340000   0.81470802 -6.5008106e-06   0.40604808 0.0030365402            0   0.40301153    1.2159517    1.6219998    1.1726638 
  345000   0.86790113 -4.5214888e-05   0.33222147 0.0020223213            0   0.33019915    1.2953424    1.6275639   -1.4976892 
  350000   0.86451528 -1.2060924e-05   0.33427574 0.00026815164            0   0.33400759     1.290289    1.6245648   0.79091374 
  355000   0.86079408 3.0741961e-05   0.35604511            0            0   0.35604511    1.2847352    1.6407803    3.7656646 
  360000   0.87484657 -4.2883892e-05   0.32857595            0            0   0.32857595    1.3057085    1.6342845   -1.3298501 
  365000   0.88636874 -1.2387394e-05   0.32930913            0            0   0.32930913    1.3229053    1.6522145    0.7959978 
  370000   0.86751494 -3.9109926e-05    0.3769729            0            0    0.3769729    1.2947661     1.671739   -1.0315391 
  375000   0.89687651 3.0375853e-05   0.34987678            0            0   0.34987678    1.3385882     1.688465    3.7880439 
  380000   0.84926611 -6.2906724e-05   0.40677324            0            0   0.40677324    1.2675297    1.6743029   -2.6738098 
  385000   0.89632851 -3.7608663e-05   0.34558414            0            0   0.34558414    1.3377703    1.6833544  -0.91615631 
  390000    0.8708654 8.1923666e-05   0.37814636            0            0   0.37814636    1.2997666     1.677913    7.3404768 
  395000   0.90208888 -7.0663726e-05   0.33339914            0            0   0.33339914    1.3463677    1.6797668     -3.20451 
  400000   0.90720404 -2.2696848e-05   0.35586847            0            0   0.35586847     1.354002    1.7098705   0.14106435 
  405000   0.92915815 7.9193054e-05   0.33724683            0            0   0.33724683    1.3867685    1.7240154    7.1978392 
  410000   0.91185629 -0.00014042024   0.36852678            0            0   0.36852678    1.3609455    1.7294723   -7.9763749 
  415000   0.90936363 4.6735549e-05   0.37402134            0            0   0.37402134    1.3572252    1.7312466    4.9616077 
  420000   0.89874154 -5.8053738e-06   0.37611581            0            0   0.37611581    1.3413718    1.7174876    1.3162201 
  425000   0.90629113 -8.8536838e-05   0.34879701 0.00049715484            0   0.34829986    1.3526395    1.7014365   -4.4182297 
  430000   0.89983361 5.3230541e-05   0.36777643 0.0010520644            0   0.36672436    1.3430017    1.7107781    5.3900731 
  435000   0.85877802 -2.2619683e-05   0.42546193 0.0010679978            0   0.42439393    1.2817262    1.7071881   0.14371564 
  440000   0.87047249 -5.9472402e-05   0.40976505 0.00020650478            0   0.40955854    1.2991802    1.7089452   -2.4017872 
  445000   0.91277586 5.5055954e-06   0.33993575            0            0   0.33993575     1.362318    1.7022537    2.0828005 
  450000   0.90119058 4.4238219e-05   0.34626358            0            0   0.34626358    1.3450269    1.6912905    4.7490362 
  455000   0.90989806 -9.9157264e-05   0.34568031            0            0   0.34568031    1.3580229    1.7037032   -5.1500469 
  460000   0.93005759 -9.8988277e-06    0.3044021            0            0    0.3044021     1.388111    1.6925131    1.0083061 
  465000   0.92063838 5.5492613e-05   0.31455203            0            0   0.31455203    1.3740528    1.6886048    5.5242542 
  470000   0.88511459 -9.1049796e-05    0.3625957            0            0    0.3625957    1.3210335    1.6836292   -4.6097327 
  475000    0.9170114 1.9295904e-05   0.32554231            0            0   0.32554231    1.3686395    1.6941818    3.0279147 
  480000    0.9193314 2.5148445e-05   0.32724807            0            0   0.32724807    1.3721021    1.6993502    3.4376107 
  485000   0.88574353 -6.4504393e-05   0.37500277            0            0   0.37500277    1.3219722     1.696975   -2.7615687 
  490000   0.87596823 3.1672287e-05   0.38787602            0            0   0.38787602    1.3073826    1.6952586    3.8844471 
  495000    0.9160722 -3.8162577e-05   0.33760384            0            0   0.33760384    1.3672378    1.7048416  -0.93295571 
  500000   0.89415452 -2.1183806e-05    0.3791036            0            0    0.3791036    1.3345256    1.7136292   0.24940457 
  505000   0.89962873 -3.684919e-05   0.40418529            0            0   0.40418529    1.3426959    1.7468812  -0.80013482 
  510000   0.93275867 1.9442888e-05   0.34879774            0            0   0.34879774    1.3921423    1.7409401    3.0848324 
  515000   0.92313581 -3.77512e-05   0.36109511 8.2033842e-06            0   0.36108691    1.3777802    1.7388753  -0.87048767 
  520000   0.90739163 -3.1857034e-05   0.39579507 0.00065462006            0   0.39514045     1.354282    1.7500771   -0.4518811 
  525000   0.91618012 -1.4389947e-05   0.37902329 0.00074558461            0   0.37827771    1.3673988    1.7464221   0.75178901 
  530000   0.94677584 3.2144813e-06   0.34560895 0.00025148809            0   0.34535746    1.4130629    1.7586719    1.9808568 
  535000   0.92253972 -1.6616427e-05   0.37790703 2.8092546e-05            0   0.37787893    1.3768905    1.7547976   0.60627009 
  540000   0.87233313 -2.7159442e-05   0.45439999 0.00046528722            0    0.4539347    1.3019572    1.7563572  -0.12090347 
  545000   0.88129681 -1.3238135e-05   0.41750226  0.001081685            0   0.41642057    1.3153355    1.7328378   0.81781789 
  550000   0.90836912 2.4953536e-05    0.3821835 0.0003724618            0   0.38181104    1.3557409    1.7379244    3.4627128 
  555000   0.89545855 -9.4340131e-05   0.42233004 0.0001962984            0   0.42213374    1.3364719    1.7588019   -4.7619879 
  560000   0.93553674 6.641752e-05   0.36598822 0.00046456606            0   0.36552365    1.3962886    1.7622768    6.3530558 
  565000   0.92558622 2.315114e-06   0.37304059 0.00044066825            0   0.37259992    1.3814374     1.754478    1.9144987 
  570000   0.92626635 -7.3807459e-05   0.38768386 0.00027681546            0   0.38740705    1.3824525    1.7701364   -3.3314352 
  575000   0.95918087 7.5795737e-05   0.36479905 0.00044147985            0   0.36435757    1.4315775    1.7963765    7.0353778 
  580000   0.92647853 -6.2626929e-05   0.41090173 0.0001946367            0    0.4107071    1.3827692    1.7936709   -2.5351024 
  585000   0.92745186 -1.0701728e-05   0.41793777            0            0   0.41793777    1.3842219    1.8021597    1.0624562 
  590000   0.98371057 1.5030095e-05   0.33798031            0            0   0.33798031     1.468188    1.8061683    2.8450485 
  595000   0.96913557 -3.578011e-05   0.38310559            0            0   0.38310559    1.4464348    1.8295404  -0.64358081 
  600000   0.94910164 5.526516e-05   0.41302273            0            0   0.41302273    1.4165342    1.8295569    5.6494848 
  605000   0.97252979 -7.1156094e-05   0.37458224            0            0   0.37458224    1.4515007    1.8260829   -3.0922263 
  610000    0.9586256 9.9077512e-05   0.40384308            0            0   0.40384308    1.4307487    1.8345918    8.6828294 
  615000   0.90159631 -0.00011715087   0.50021878            0            0   0.50021878    1.3456325    1.8458513   -6.2516171 
  620000    0.9788154 6.7584566e-05   0.39748071            0            0   0.39748071     1.460882    1.8583627    6.5298079 
  625000   0.94139638 -2.313635e-05   0.44423535 0.00038753557            0   0.44384782    1.4050341    1.8492695   0.25008497 
  630000   0.96158562 -5.3985427e-05   0.42956423 0.0022008618            0   0.42736337    1.4351665    1.8647308    -1.866742 
  635000   0.98148912 3.6008585e-05   0.40782637 0.0015089842            0   0.40631739    1.4648725    1.8726989    4.3616123 
  640000    1.0082815 -1.6446555e-05   0.36778164 4.8084237e-05            0   0.36773355    1.5048601    1.8726417   0.73585584 
  645000   0.97625828 -4.9924702e-05   0.43036878            0            0   0.43036878    1.4570655    1.8874343   -1.5633611 
  650000   0.97061266 7.1104551e-05   0.42078944            0            0   0.42078944    1.4486394    1.8694288    6.7841754 
  655000   0.98717322 -5.9697242e-05   0.40094403            0            0   0.40094403     1.473356    1.8743001   -2.2519733 
  660000   0.93460477 2.3301225e-05   0.47249312            0            0   0.47249312    1.3948976    1.8673907    3.4779714 
  665000   0.99439486 3.6692349e-06   0.37903764 0.0002091953            0   0.37882844    1.4841343     1.863172    2.1167895 
  670000   0.97998527 -8.3237547e-05   0.40150981 0.0023561447            0   0.39915367     1.462628    1.8641378   -3.8892414 
  675000   0.95495637 0.0001155872   0.44957005 0.0029110438            0   0.44665901    1.4252724    1.8748424    9.8642297 
  680000   0.93016827 -0.00014619265    0.4639834 0.0013756577            0   0.46260774    1.3882761    1.8522595   -8.2525767 
  685000   0.97733506 6.4448666e-05   0.38469956 0.0049089973            0   0.37979056    1.4586726    1.8433721     6.298064 
  690000     0.954706 1.4013407e-05   0.42860951 0.0058109602            0   0.42279855    1.4248987    1.8535082    2.8221149 
  695000   0.95485791 -6.2330179e-05    0.4242204 0.00087256683            0   0.42334783    1.4251254    1.8493458   -2.4589162 
  700000   0.96809393 5.2570931e-05   0.40270956 1.6130363e-05            0   0.40269343    1.4448802    1.8475897    5.4812925 
  705000   0.99725483 -2.7375953e-05   0.38113084 0.0004590538            0   0.38067178    1.4884028    1.8695337 -0.022692214 
  710000     0.986893 -1.9732394e-05   0.41110583 0.00092506667            0   0.41018076    1.4729378    1.8840436   0.52014053 
  715000   0.98118928 -1.5326745e-06   0.41605097 0.0021216272            0   0.41392934     1.464425     1.880476    1.7745375 
  720000   0.98169565 1.8054251e-05    0.4167919  0.010246433            0   0.40654546    1.4651808    1.8819727    3.1298825 
  725000   0.94415385 -6.1898446e-05   0.47567849 0.0069793758            0   0.46869912    1.4091496    1.8848281   -2.3935925 
  730000   0.95691937 6.0574976e-06   0.45540342 0.0043378947            0   0.45106552    1.4282022    1.8836056    2.3022998 
  735000   0.95673688 2.5470495e-05   0.46353038 0.0020849667            0   0.46144541    1.4279298    1.8914602    3.6519808 
  740000   0.99589068 -4.2487766e-05   0.40950846 0.0038774334            0   0.40563103    1.4863668    1.8958753   -1.0408791 
  745000   0.99865138 8.4332466e-06    0.4010013 0.0042132686            0   0.39678803    1.4904872    1.8914885    2.4743945 
  750000   0.97632595 -8.8329637e-07   0.46731024  0.002185396            0   0.46512484    1.4571665    1.9244767    1.8634233 
  755000    1.0053464 -1.6471545e-05   0.42093073 0.0032946185            0   0.41763611    1.5004795    1.9214103   0.78289707 
  760000    1.0203542 -2.8044791e-05    0.4070608  0.012431813            0   0.39462899    1.5228786    1.9299394 -0.0085165436 
  765000    0.9929629 5.6252616e-05   0.45709163 0.0030164059            0   0.45407522    1.4819971    1.9390888    5.8272696 
  770000   0.96090398 -3.5819882e-05   0.47467824 0.0010575259            0   0.47362072    1.4341492    1.9088274  -0.56704278 
  775000    1.0078001 -4.1087067e-05   0.40828298 0.0016135002            0   0.40666948    1.5041417    1.9124246  -0.92751345 
  780000   0.96910942 2.9853908e-05   0.46009607 0.00029389095            0   0.45980218    1.4463958    1.9064919     3.969994 
  785000   0.96081284 -2.6790559e-05   0.46393782            0            0   0.46393782    1.4340132     1.897951  0.046187559 
  790000   0.98297665 -8.241324e-06   0.44363889            0            0   0.44363889    1.4670927    1.9107315    1.3410912 
  795000    0.9866046 2.6634578e-06   0.44569307            0            0   0.44569307    1.4725074    1.9182004    2.1022986 
  800000    0.9413875 -6.1235482e-05   0.49831941            0            0   0.49831941    1.4050208    1.9033402   -2.3292562 
  805000   0.99077064 5.7351555e-05   0.43249313 0.00012196116            0   0.43237117    1.4787252    1.9112183    5.8753578 
  810000   0.95086194 -9.0797787e-05   0.47001051  0.005973452            0   0.46403706    1.4191614     1.889172   -4.3867711 
  815000   0.93616173 7.6955017e-05    0.4912989 0.0084064978            0    0.4828924    1.3972214    1.8885203    7.2076511 
  820000   0.98587007 -5.3346349e-05   0.40324902 0.0014738201            0    0.4017752    1.4714111    1.8746601   -1.8126396 
  825000   0.94498951 -3.5882926e-05   0.44812392 0.00014196964            0   0.44798195    1.4103968    1.8585208  -0.62170709 
  830000   0.90103232 2.0398299e-05   0.50418999            0            0   0.50418999    1.3447907    1.8489807    3.2589111 
  835000   0.91092678 -7.1358904e-05   0.48772885            0            0   0.48772885    1.3595582    1.8472871   -3.0850404 
  840000   0.91407658 0.00010130603   0.47887728            0            0   0.47887728    1.3642593    1.8431366    8.8454096 
  845000   0.96185558 -3.5177259e-05   0.41467895            0            0   0.41467895    1.4355695    1.8502484  -0.58120375 
  850000   0.94533285 -5.4740449e-05   0.44188699            0            0   0.44188699    1.4109093    1.8527963   -1.9308636 
  855000   0.95456942 2.0889753e-05   0.42991919 9.6290425e-06            0   0.42990956    1.4246949     1.854614    3.2985138 
  860000   0.93101467 -8.2762273e-05   0.47191041 2.1978455e-05            0   0.47188843    1.3895394    1.8614498   -3.8590785 
  865000   0.90782008 4.5412666e-05   0.49720451            0            0   0.49720451    1.3549215     1.852126    4.9910495 
  870000   0.93175667 -2.48555e-05   0.46024148            0            0   0.46024148    1.3906468    1.8508883   0.13287616 
  875000   0.97071908 8.3643392e-06   0.41045912 7.1432407e-05            0   0.41038769    1.4487982    1.8592573    2.4374005 
  880000   0.93719931 -3.0684489e-05   0.46523874 0.00067467415            0   0.46456407      1.39877    1.8640087  -0.25690319 
  885000   0.97637379 -6.5825219e-05   0.42049496 0.0039514027            0   0.41654355    1.4572379    1.8777328   -2.6721063 
  890000   0.96779004 5.5742387e-05   0.43765241 0.0035165185            0   0.43413589    1.4444266     1.882079    5.7349928 
  895000   0.92810985 -6.2185789e-05   0.50988177  0.001240808            0   0.50864096     1.385204    1.8950857    -2.403196 
  900000   0.96588149 -2.6342405e-06   0.46237707 0.00019373084            0   0.46218334    1.4415781    1.9039552    1.7218765 
  905000   0.96972491 -4.4141804e-05   0.45502265 9.7143332e-05            0   0.45492551    1.4473144    1.9023371   -1.1487444 
  910000   0.99093149 -4.0529185e-05   0.42383823 9.9601435e-06            0   0.42382827    1.4789652    1.9028035  -0.89857381 
  915000    1.0138255 7.5677101e-06   0.38932559            0            0   0.38932559    1.5131345    1.9024601    2.4255403 
  920000   0.98801755 -5.122228e-06   0.44182653 0.0005765396            0   0.44124999    1.4746162    1.9164427    1.5623943 
  925000   0.95769003 -3.2926987e-05   0.49141177 0.0010094744            0    0.4904023    1.4293524    1.9207641  -0.35514923 
  930000   0.93348296 -1.5866726e-05   0.54084809 0.0035314231            0   0.53731667    1.3932233    1.9340714    0.8373633 
  935000   0.93114681 -3.7517098e-06    0.5112904 0.00044979048            0   0.51084061    1.3897366     1.901027    1.6417088 
  940000   0.99487653 3.4899876e-05   0.42997299 3.4746436e-07            0   0.42997265    1.4848532    1.9148262    4.3271056 
  945000   0.97233037 -5.5162465e-05   0.46249015 3.4618813e-05            0   0.46245554    1.4512031    1.9136932   -1.8991363 
  950000    0.9624947 4.1693154e-05   0.48021884            0            0   0.48021884    1.4365233    1.9167422     4.798573 
  955000   0.94759231 -9.0558876e-05   0.50275343 6.9323116e-05            0   0.50268411    1.4142815     1.917035   -4.3423946 
  960000   0.97093587 4.854846e-05   0.46484845 8.4673269e-05            0   0.46476378    1.4491218    1.9139702    5.2696398 
  965000   0.98360913 -5.1995092e-05   0.46563538 0.00035997182            0   0.46527541    1.4680366     1.933672   -1.6602287 
  970000   0.98730729 -3.108153e-05   0.46263846 0.0011481046            0   0.46149035    1.4735561    1.9361946  -0.21216074 
  975000    1.0025946 7.7004874e-05   0.46843991 0.0014675169            0   0.46697239    1.4963725    1.9648124    7.2873893 
  980000    1.0078942 9.807834e-07   0.45383163 0.0010319271            0    0.4527997     1.504282    1.9581136    2.0259054 
  985000    1.0041344 -9.2687663e-06   0.48350731 0.00089441036            0    0.4826129    1.4986705    1.9821778    1.3415207 
  990000   0.99574171 -6.3243725e-05   0.50312278 0.00058031901            0   0.50254246    1.4861445    1.9892673    -2.382139 
  995000      1.00334 -2.27421e-05   0.49980114 3.3900419e-05            0   0.49976724     1.497485    1.9972861   0.42535217 
 1000000   0.98864542 1.7602892e-05   0.51869326            0            0   0.51869326    1.4755533    1.9942465    3.2109584 
 1005000   0.99330024 -5.235517e-06   0.51603679 1.2383965e-06            0   0.51603555    1.4825006    1.9985374    1.6366585 
 1010000    1.0371054 -2.882013e-05   0.45826144 0.0016273246            0   0.45663412    1.5478798    2.0061412  0.014093828 
 1015000    1.0636492 5.2085581e-05   0.42768093 0.0032420898            0   0.42443884    1.5874964    2.0151773    5.6153327 
 1020000   0.97982231 -8.1980223e-05   0.56250883 0.00092479532            0   0.56158403    1.4623848    2.0248936   -3.6415794 
 1025000    1.0374513 7.1285442e-05   0.46716712 0.00061639286            0   0.46655072     1.548396    2.0155631    6.9428129 
 1030000    1.0283264 -1.8144561e-05   0.48439806  0.011654062            0     0.472744    1.5347771    2.0191752   0.76502315 
 1035000    1.0247491 -1.9469052e-05   0.49437321 0.0035453417            0   0.49082787     1.529438    2.0238112   0.67811032 
 1040000    1.0515354 -2.2666697e-05   0.46272518  0.004232139            0   0.45849304    1.5694166    2.0321418   0.46541968 
 1045000     1.021433 2.8896243e-05   0.51274505  0.011844006            0   0.50090104    1.5244888    2.0372338    4.0345421 
 1050000    1.0494599 -5.6330786e-05   0.47970225 0.0064269504            0    0.4732753     1.566319    2.0460212   -1.8475627 
 1055000     1.017796 1.276903e-05   0.53149228  0.003225822            0   0.52826645    1.5190605    2.0505528    2.9331482 
 1060000    1.0449611 -4.9487025e-05   0.47211234 0.0018453526            0   0.47026698    1.5596044    2.0317168   -1.3888264 
 1065000    1.0094252 4.7928659e-05   0.54312005 0.0034254034            0   0.53969465    1.5065672    2.0496872    5.3625162 
 1070000    1.0150491 2.7934828e-05   0.50551783 0.0014069693            0   0.50411086    1.5149608    2.0204786    3.9513339 
 1075000    1.0643262 -5.069027e-06   0.44503028 0.00033403877            0   0.44469624    1.5885068    2.0335371     1.683166 
 1080000    1.0073324 1.9151337e-05   0.52600118 0.00011820225            0   0.52588298    1.5034436    2.0294448    3.3531852 
 1085000   0.98594437 -5.1057761e-05   0.53582016 0.00028342172            0   0.53553674     1.471522    2.0073421   -1.5217703 
 1090000    1.0225284 3.4529262e-05   0.49465039 0.00013706254            0   0.49451333    1.5261236     2.020774    4.4074366 
 1095000    1.0532795 -2.4875064e-06   0.44761023 4.5307169e-06            0    0.4476057    1.5720197    2.0196299    1.8476935 
 1100000    1.0197109 1.2675658e-05   0.50887099 0.0012057681            0   0.50766522    1.5219185    2.0307895     2.906931 
 1105000    1.0657189 -3.3591406e-05    0.4401954 0.0041662811            0   0.43602912    1.5905854    2.0307808   -0.2910572 
 1110000    1.0304347 1.3770942e-06   0.48770851 0.0056454566            0   0.48206305    1.5379239    2.0256324    2.1208171 
 1115000   0.99479659 1.2539727e-05   0.53910657  0.014576844            0   0.52452973    1.4847339    2.0238405    2.8905864 
 1120000    1.0107169 1.1923305e-05   0.50436251 0.0021953555            0   0.50216715     1.508495    2.0128575    2.8369964 
 1125000    1.0429636 8.1993483e-05   0.46063523 0.0054736174            0   0.45516161    1.5566232    2.0172585     7.684648 
 1130000   0.98931256 -5.5111997e-05   0.52705214  0.015765236            0   0.51128691     1.476549    2.0036011   -1.8057401 
 1135000   0.99688258 6.2739658e-05   0.50535161 0.0042541931            0   0.50109741    1.4878473    1.9931989     6.329764 
 1140000   0.99947217 -5.9173914e-05   0.49386573            0            0   0.49386573    1.4917122    1.9855779    -2.104523 
 1145000    1.0031831 9.3323116e-05   0.50480713            0            0   0.50480713    1.4972508    2.0020579    8.4525517 
 1150000    1.0114352 -4.8953911e-06   0.49933576  0.001130369            0   0.49820539    1.5095671    2.0089028    1.6705334 
 1155000     1.027005 -1.606899e-05   0.49640655  0.001695627            0   0.49471092     1.532805    2.0292116   0.91852296 
 1160000    1.0645501 5.4045311e-05   0.43929838 0.0015788525            0   0.43771952    1.5888411    2.0281394    5.7637514 
 1165000    1.0038837 -1.0716895e-05   0.53599132 0.0035921376            0   0.53239918    1.4982965    2.0342878     1.293536 
 1170000    1.0238911 -9.1392107e-06   0.53337952 0.0036418617            0   0.52973766    1.5281575     2.061537    1.4298347 
 1175000    1.1099116 -1.6651008e-05    0.4010041 0.0014462689            0   0.39955783    1.6565431    2.0575472   0.90662956 
 1180000    1.0421869 5.0686013e-05   0.50398061 0.0088898258            0   0.49509079     1.555464    2.0594446    5.5628618 
 1185000    1.0451495 -9.2424033e-06    0.4879629  0.010794411            0   0.47716849    1.5598856    2.0478485    1.4090136 
 1190000    1.0847119 5.8302025e-05   0.43287848 0.00084845921            0   0.43203002    1.6189325     2.051811    6.0816469 
 1195000    1.0400567 -5.3677217e-05   0.49942022 0.00055217429            0   0.49886804    1.5522847    2.0517049   -1.6584643 
 1200000    1.0633551 -3.3024213e-05   0.46821914 0.0032923136            0   0.46492683    1.5870575    2.0552766  -0.22735702 
 1205000    1.0271276 4.8517908e-05   0.51523562 0.0025579417            0   0.51267768     1.532988    2.0482236    5.4017814 
 1210000    1.0378086 -4.7016443e-05   0.49159779 0.00093195893            0   0.49066583    1.5489293    2.0405271   -1.2092494 
 1215000    1.0416015 1.8642071e-05   0.49255809 0.0015442228            0   0.49101387    1.5545902    2.0471483    3.3356882 
 1220000    1.0706857 -1.6826084e-05   0.44961903 0.0040823795            0   0.44553665    1.5979984    2.0476175   0.88459852 
 1225000    1.0745556 2.7418279e-05   0.45338729  0.022114393            0   0.43127289    1.6037742    2.0571615     3.952313 
 1230000    1.0308674 3.4391146e-05   0.51816925  0.017887065            0   0.50028218    1.5385696    2.0567388    4.4338549 
 1235000    1.0652587 -4.2492981e-06   0.46541887 1.0863724e-05            0     0.465408    1.5898986    2.0553174    1.7616059 
 1240000    1.0560821 -6.3701469e-05   0.48183524            0            0   0.48183524    1.5762026    2.0580378   -2.3450077 
 1245000     1.088194 4.3212366e-05    0.4398417            0            0    0.4398417    1.6241295    2.0639712    5.0508099 
 1250000    1.0313075 -0.00012476483    0.5267609 4.3210597e-05            0   0.52671769    1.5392264    2.0659873   -6.5577577 
 1255000    1.0548157 2.2249142e-06   0.47732107            0            0   0.47732107    1.5743124    2.0516335    2.2054195 
 1260000     1.013681 -2.7873218e-05   0.55255833 0.0040980605            0   0.54846027    1.5129189    2.0654772   0.13888034 
 1265000    1.0511737 -4.9564009e-05   0.50201817  0.011614483            0   0.49040369    1.5688767    2.0708949   -1.3549694 
 1270000    1.0587152 -1.6369193e-05   0.47733451 0.00056572562            0   0.47676878    1.5801324    2.0574669    0.9260283 
 1275000    1.0568007 6.6696822e-05   0.48305132 0.0029019285            0   0.48014939    1.5772751    2.0603264    6.6704107 
 1280000    1.0330929 -6.7860645e-05   0.51847272 0.0054074706            0   0.51306525    1.5418911    2.0603639   -2.6301639 
 1285000    1.0546144 5.2184979e-05   0.47282764   0.01076054            0    0.4620671     1.574012    2.0468397    5.6538655 
 1290000    1.0697206 -5.6669944e-05   0.47799505 0.0033279888            0   0.47466706    1.5965581    2.0745531   -1.8424734 
 1295000    1.0898196 -1.9341026e-05   0.44775332 0.00050857635            0   0.44724474    1.6265557    2.0743091   0.73745735 
 1300000    1.0627952 2.0763191e-05   0.47483501 0.0039983603            0   0.47083665    1.5862218    2.0610568    3.4962086 
 1305000    1.0597084 8.7902652e-06   0.50106902 0.0058322249            0    0.4952368    1.5816147    2.0826837    2.6902669 
 1310000    1.1114857 3.4632514e-05   0.42015577  0.019085439            0   0.40107033    1.6588924    2.0790482    4.4728476 
 1315000    1.0896618 -2.5925209e-06   0.45352481 0.0085906778            0   0.44493414    1.6263202     2.079845    1.9006499 
 1320000     1.056319 -6.6288718e-05   0.50579143 0.00025337032            0   0.50553806    1.5765561    2.0823475   -2.4995286 
 1325000    1.0363758 -9.7914395e-06   0.51455764 0.0022227022            0   0.51233494    1.5467909    2.0613485    1.3845642 
 1330000    1.0133059 -1.7403276e-06   0.52956768 0.0058667534            0   0.52370093    1.5123591    2.0419267    1.9216353 
 1335000   0.99436813 -1.9688966e-05   0.54310342 0.0031065186            0    0.5399969    1.4840944    2.0271979   0.66629651 
 1340000    1.0585018 1.1970132e-05   0.43223085 0.00023220048            0   0.43199865    1.5798139    2.0120448    2.8394203 
 1345000      1.01228 -0.00010023259   0.51529381 0.00083527609            0   0.51445854    1.5108279    2.0261217    -4.901955 
 1350000   0.97935645 4.9676409e-05    0.5934902 0.0065012275            0   0.58698897    1.4616895    2.0551797    5.4888131 
 1355000    1.0543484 -3.7226889e-05    0.4794826 0.0066239611            0   0.47285864     1.573615    2.0530976  -0.52002498 
 1360000    1.0535307 2.7021933e-05   0.48675445  0.008110665            0   0.47864378    1.5723946     2.059149     3.926905 
 1365000    1.0227076 1.0661257e-05   0.51623794  0.017165848            0    0.4990721     1.526391     2.042629    2.7795351 
 1370000    1.0597789 -6.3504608e-05   0.47990315  0.010029488            0   0.46987367      1.58172    2.0616232   -2.3278154 
 1375000    1.0579151 1.3947217e-05   0.45866379  0.014854442            0   0.44380935    1.5789384    2.0376021    3.0016338 
 1380000   0.99387971 6.210397e-07   0.54402612 0.0018722895            0   0.54215383    1.4833655    2.0273916    2.0703178 
 1385000   0.98781938 2.2113777e-05   0.53803329 0.00021574564            0   0.53781754    1.4743204    2.0123537     3.540858 
 1390000    1.0209157 -3.6470997e-05   0.48205746 0.00094322835            0   0.48111423    1.5237167    2.0057741  -0.51510121 
 1395000   0.98591684 2.4346779e-05   0.54396706 0.0042893925            0   0.53967766    1.4714809    2.0154479    3.6982973 
 1400000   0.96624278 -5.8247175e-05   0.55964916 0.0087827572            0    0.5508664    1.4421173    2.0017665   -2.0242782 
 1405000   0.96200941 2.1505878e-05   0.57256715 0.0048204005            0   0.56774675     1.435799    2.0083662    3.4948525 
 1410000   0.99404885 -7.1223316e-05   0.51960878   0.00081459            0   0.51879419    1.4836179    2.0032267   -2.9197289 
 1415000    1.0275078 5.0403141e-05   0.47208848 0.00017491113            0   0.47191357    1.5335554    2.0056439     5.489509 
 1420000    1.0430909 -3.2624455e-05   0.45722776 0.00095568589            0   0.45627208    1.5568132    2.0140409  -0.24096138 
 1425000    1.0120967 1.2190811e-05   0.51370841 0.0011300106            0    0.5125784    1.5105544    2.0242628    2.8668916 
 1430000    1.0104706 -6.2177723e-05   0.52389577  0.001147894            0   0.52274788    1.5081274    2.0320232    -2.265701 
 1435000    1.0174567 9.8785773e-06    0.5103454 0.0030458613            0   0.50729954    1.5185541    2.0288995    2.7117067 
 1440000    1.0282508 1.5034646e-05   0.47768626 0.0064196117            0   0.47126665    1.5346643    2.0123506    3.0515453 
 1445000    1.0384347 -2.0607286e-05   0.45450431 0.0035856298            0   0.45091868    1.5498638    2.0043681   0.57999251 
 1450000   0.98475186 -2.9265523e-05   0.52225616 0.0012046091            0   0.52105155    1.4697422    1.9919983 -0.030834617 
 1455000    1.0426635 -2.5827317e-06   0.44583458 0.0036807761            0    0.4421538    1.5561752    2.0020098    1.8234914 
 1460000    1.0402732 4.4877716e-05   0.44583121  0.013936936            0   0.43189428    1.5526077    1.9984389    5.1003866 
 1465000   0.98490561 -5.0668621e-06   0.51848433 0.0093396683            0   0.50914466    1.4699716     1.988456    1.6382345 
 1470000    1.0418514 -5.2014294e-05    0.4211471 0.0017214686            0   0.41942563    1.5549633    1.9761103   -1.6191177 
 1475000    1.0217049 3.3531482e-05   0.42548644 0.0060001754            0   0.41948627    1.5248945     1.950381     4.268077 
 1480000   0.95170698 -2.6583907e-05   0.53374242  0.010984848            0   0.52275757    1.4204227    1.9541651   0.11668541 
 1485000    1.0159556 1.1302293e-05   0.44882149 0.0036506636            0   0.44517083    1.5163138    1.9651353    2.7463498 
 1490000   0.98202148 -6.7827542e-05   0.50980172 0.0065352043            0   0.50326652    1.4656671    1.9754688   -2.7127709 
 1495000    1.0098189 3.3928668e-05    0.4735907 0.0043505056            0    0.4692402    1.5071547    1.9807454     4.325895 
 1500000   0.99449409 1.3267989e-05   0.49939431 0.0013640677            0   0.49803024    1.4842824    1.9836767    2.9007602 
 1505000   0.98885438 -4.1188287e-05   0.49663552 0.0019291744            0   0.49470634    1.4758652    1.9725007   -0.8744337 
 1510000   0.98145718 3.4993492e-05   0.52070856 0.0027685098            0   0.51794005    1.4648248    1.9855334    4.4042836 
 1515000    1.0022579 -4.0020579e-05   0.51228918 0.0013018458            0   0.51098733    1.4958699    2.0081591  -0.75806334 
 1520000    1.0028473 5.473305e-05   0.49505078 0.0036775529            0   0.49137322    1.4967496    1.9918004    5.7749488 
 1525000   0.97296275 -3.7476361e-05    0.5406996 0.0028730697            0   0.53782653    1.4521469    1.9928465   -0.5975196 
 1530000    1.0400499 -1.2353616e-05   0.45134359 0.0094369254            0   0.44190666    1.5522745    2.0036181    1.1497362 
 1535000   0.99897238 -2.490359e-05   0.51207056  0.014958227            0   0.49711233    1.4909663    2.0030368   0.28170069 
 1540000    1.0179739 -1.1900785e-05    0.4863203 0.0047783103            0   0.48154199    1.5193261    2.0056464    1.1830642 
 1545000    1.0034553 5.3868455e-05   0.50580468 0.0073910011            0   0.49841368    1.4976571    2.0034618    5.7268494 
 1550000    1.0225001 4.0930669e-05   0.48511383 0.0050306213            0   0.48008321    1.5260814    2.0111952    4.8403231 
 1555000    1.0245932 -7.7865179e-06   0.46200646 0.0033335268            0   0.45867293    1.5292053    1.9912118    1.4530077 
 1560000   0.99070744 4.2829542e-05   0.50396669  0.011677073            0   0.49228962    1.4786308    1.9825975    4.9429755 
 1565000   0.99453256 -6.6694425e-05   0.49762685  0.022239471            0   0.47538738    1.4843398    1.9819667   -2.6279519 
 1570000    1.0398187 -8.1162331e-06    0.4170995 0.0044746243            0   0.41262488    1.5519294    1.9690289    1.4080349 
 1575000   0.99852748 -3.2987602e-05   0.47283329 0.00036675277            0   0.47246654    1.4903023    1.9631356  -0.31696746 
 1580000    1.0378713 -9.2938409e-06    0.4212019 0.0023755961            0   0.41882631    1.5490229    1.9702248    1.3278345 
 1585000    1.0884116 -7.2835269e-06   0.35699438 0.0039819604            0   0.35301242    1.6244543    1.9814487    1.4780113 
 1590000     1.044335 3.433745e-05    0.4359653  0.002704203            0    0.4332611      1.55867    1.9946353    4.3680399 
 1595000   0.99240592 -1.4112503e-06   0.49304741 0.0021152637            0   0.49093215    1.4811658    1.9742132    1.8766676 
 1600000    1.0329938 -3.3668601e-05   0.44621732 0.0058374475            0   0.44037988    1.5417432    1.9879605  -0.33921322 
 1605000   0.97985552 -3.5017275e-05   0.50585021 0.0089589622            0   0.49689125    1.4624344    1.9682846  -0.45210946 
 1610000    1.0417541 3.0366002e-05   0.41996391 0.0059866181            0   0.41397729     1.554818    1.9747819      4.07368 
 1615000   0.97495815 7.3025593e-06   0.50415335 0.0057739121            0   0.49837943     1.455125    1.9592784    2.4640313 
 1620000    1.0110116 4.7598838e-06   0.42927116 0.0035080425            0   0.42576312    1.5089348     1.938206    2.2672092 
 1625000   0.95209653 -6.4145494e-05   0.50370554 0.0024284756            0   0.50127706    1.4210041    1.9247096    -2.509027 
 1630000   0.99843018 2.8967519e-05   0.43622307 0.0020996659            0    0.4341234     1.490157    1.9263801     3.928615 
 1635000    1.0039972 -1.1252681e-05   0.43109001 0.0029826653            0   0.42810734    1.4984659    1.9295559    1.1517706 
 1640000    0.9716406 5.1562997e-05   0.47446156 0.0025686679            0   0.47189289    1.4501736    1.9246351    5.4886695 
 1645000   0.96570671 -3.3732189e-05   0.46715487 0.0072594891            0   0.45989539    1.4413173    1.9084721  -0.42309674 
 1650000   0.97710412 -6.4475735e-05    0.4554282 0.0092555686            0   0.44617263    1.4583279    1.9137561   -2.5428067 
 1655000   0.98166512 -2.5522864e-05   0.45160122 0.0072384509            0   0.44436277    1.4651352    1.9167364   0.15259609 
 1660000   0.98667774 4.1510411e-05   0.42636524 0.0047299583            0   0.42163528    1.4726165    1.8989818    4.7681813 
 1665000   0.97407698 -4.3498045e-05   0.43626854 0.0019967073            0   0.43427183    1.4538099    1.8900784   -1.1165064 
 1670000   0.99428946 -1.7000728e-05   0.40782962 0.0025119957            0   0.40531763     1.483977    1.8918066   0.71671633 
 1675000   0.95900053 8.2206849e-06   0.46566841   0.01093833            0   0.45473008    1.4313083    1.8969767    2.4651904 
 1680000   0.98354451 -5.2629396e-05   0.44821053 0.0044640997            0   0.44374643    1.4679402    1.9161507   -1.7215932 
 1685000   0.97665957 6.2998394e-06   0.43974355  0.017476223            0   0.42226733    1.4576644     1.897408    2.3328529 
 1690000   0.99702684 -5.6903025e-05   0.38857246  0.010026629            0   0.37854583    1.4880626     1.876635    -2.056502 
 1695000   0.97361456 -6.7079683e-06    0.4205062  0.015145847            0   0.40536035    1.4531197    1.8736259    1.4099712 
 1700000   0.97238855 -3.7379422e-05   0.41940929  0.014517377            0   0.40489192    1.4512899    1.8706992  -0.71296647 
 1705000   0.93498356 2.6952221e-06   0.46830127  0.018438999            0   0.44986227     1.395463    1.8637642     2.050058 
 1710000   0.98382735 1.6239052e-05   0.40005939  0.016061785            0   0.38399761    1.4683623    1.8684217     2.990865 
 1715000   0.96709009 2.0757672e-05   0.40634147 0.0029876787            0   0.40335379     1.443382    1.8497234    3.2844937 
 1720000   0.94185157 -3.909454e-05   0.46325212 0.0074155644            0   0.45583655    1.4057135    1.8689656    -0.833249 
 1725000   0.95344338 9.8378307e-06   0.45933618  0.014921231            0   0.44441495    1.4230142    1.8823504    2.5623413 
 1730000   0.97120704 7.2088968e-06   0.44925067 0.0034851246            0   0.44576554    1.4495265    1.8987772    2.3970561 
 1735000   0.98190983 -3.1898254e-05   0.41885077 0.0038373845            0   0.41501338    1.4655004    1.8843512  -0.32045613 
 1740000   0.96514195 1.2193753e-05   0.42656096 0.0064717204            0   0.42008924    1.4404744    1.8670353    2.7098676 
 1745000   0.95492204 9.6885169e-06   0.43228688  0.010583823            0   0.42170306    1.4252211     1.857508    2.5271783 
 1750000   0.92633455 -4.1347339e-05   0.44056233 0.0012406155            0   0.43932171    1.3825543    1.8231166   -1.0348114 
 1755000   0.92326314 -2.965372e-05   0.43873431 0.0078179295            0   0.43091638    1.3779702    1.8167045  -0.23296056 
 1760000   0.93318729 -2.8758568e-05   0.42576948 0.0095617239            0   0.41620776     1.392782    1.8185515  -0.16924072 
 1765000    0.9440246 -3.7337914e-07   0.40737556  0.016863599            0   0.39051196    1.4089567    1.8163323    1.7905243 
 1770000   0.89064822 -2.2390695e-05   0.47964343  0.015865071            0   0.46377836    1.3292925    1.8089359   0.26129104 
 1775000   0.90416169 -2.5795136e-05   0.44537011  0.012554992            0   0.43281512    1.3494613    1.7948314  0.011871653 
 1780000   0.90172611 7.4611859e-05   0.44089017 0.0093638336            0   0.43152634    1.3458262    1.7867164    6.9438881 
 1785000    0.9391776 9.5217522e-06   0.40298096  0.007496737            0   0.39548422    1.4017226    1.8047035     2.462847 
 1790000   0.94223808 -2.7910896e-05   0.41656176 0.0055454962            0   0.41101626    1.4062903    1.8228521  -0.10634905 
 1795000   0.93292653 2.4118932e-05   0.43365704 0.0059153007            0   0.42774174    1.3923928    1.8260499    3.4931505 
 1800000   0.89965345 -5.7773513e-05   0.47491549 0.0087994617            0   0.46611603    1.3427328    1.8176483   -2.1756569 
 1805000   0.92158687 3.1570669e-05   0.45583822 0.0016116859            0   0.45422653    1.3754684    1.8313066    4.0134712 
 1810000   0.98286552 -3.1361824e-05   0.37105264 0.00027982781            0   0.37077281    1.4669268    1.8379794  -0.32974981 
 1815000   0.91046779 7.2086725e-06   0.47910268 2.540099e-05            0   0.47907727    1.3588732    1.8379759    2.3362393 
 1820000   0.93972528 -1.5116885e-05   0.43459351 0.0003014605            0   0.43429204      1.40254    1.8371335   0.79225442 
 1825000   0.94393348 -7.0722951e-05   0.42309136 0.0017916303            0   0.42129973    1.4088207    1.8319121   -3.0564583 
 1830000   0.93056521 1.031084e-06   0.43184589  0.014188628            0   0.41765726    1.3888686    1.8207145     1.891983 
 1835000   0.91989638 1.1688031e-05   0.44242524 0.0091989964            0   0.43322624    1.3729453    1.8153706    2.6232473 
 1840000   0.95305621 -5.4072975e-06   0.39792872  0.019518227            0    0.3784105    1.4224364    1.8203651    1.4466127 
 1845000   0.93498149 -3.7929828e-05   0.42697718 0.0096830848            0    0.4172941    1.3954599    1.8224371  -0.79927263 
 1850000   0.91798099 4.8578751e-05   0.45755487 0.00052613687            0   0.45702873    1.3700866    1.8276415    5.1854048 
 1855000   0.90435722 -3.3113298e-05   0.48561265 0.0011276748            0   0.48448498    1.3497532    1.8353658  -0.45342537 
 1860000   0.95163912 2.3579535e-05   0.40856651 0.0050769594            0   0.40348955    1.4203214    1.8288879    3.4587054 
 1865000   0.89576102 -2.4290516e-05   0.49232355 0.0075038013            0   0.48481975    1.3369233    1.8292469   0.15028639 
 1870000   0.89290341 -1.886654e-05    0.4709268 0.0033190192            0   0.46760778    1.3326583    1.8035851   0.49952988 
 1875000   0.91309072 8.6691542e-06   0.42911527  0.012609123            0   0.41650615    1.3627879    1.7919032    2.3911151 
 1880000   0.89635892 -5.2935723e-05   0.43217829 0.0035222287            0   0.42865607    1.3378157     1.769994   -1.8889232 
 1885000   0.90703075 -1.6408687e-05   0.42747472 0.0011828093            0   0.42629191    1.3537434    1.7812181   0.64704968 
 1890000   0.86823588 2.1704235e-05   0.48462353 0.0046242277            0   0.47999931    1.2958421    1.7804656    3.2806623 
 1895000   0.89299879 3.316104e-05   0.43601525 0.0094831998            0   0.42653205    1.3328007    1.7688159     4.060907 
 1900000   0.88662441 -8.6801083e-05   0.46998779   0.01056537            0   0.45942242    1.3232869    1.7932747   -4.2064161 
 1905000   0.89356268 5.0535299e-05   0.45696589   0.01220436            0   0.44476153    1.3336423    1.7906082    5.2836081 
 1910000   0.92212873 1.1570287e-05   0.41115931  0.013286559            0   0.39787275    1.3762771    1.7874364    2.5871747 
 1915000   0.87347878 -1.3243402e-05   0.48797985 0.0033967574            0    0.4845831    1.3036671    1.7916469   0.87626297 
 1920000   0.91865018 2.1201362e-05   0.43210339 0.0071073848            0   0.42499601    1.3710854    1.8031888    3.2686269 
 1925000   0.91255877 -2.2187359e-05   0.45862125  0.013778754            0    0.4448425     1.361994    1.8206152   0.28702498 
 1930000   0.89702982 6.0593815e-06   0.45266264  0.004766239            0    0.4478964     1.338817    1.7914797    2.2103041 
 1935000   0.91399719 -6.7737164e-07   0.43516667 0.0011142079            0   0.43405247    1.3641408    1.7993075    1.7524876 
 1940000   0.90587747 -4.3671114e-05   0.45245804 0.0015128875            0   0.45094515    1.3520221    1.8044802   -1.2140672 
 1945000   0.94577913 -8.0697653e-07   0.41128406 0.0021546976            0   0.40912936    1.4115753    1.8228594    1.7670812 
 1950000   0.87097241 2.5057973e-07   0.51782373 0.0022557579            0   0.51556797    1.2999263      1.81775    1.8350701 
 1955000   0.89568889 1.8138403e-05   0.50021433 0.0031033256            0   0.49711101    1.3368157      1.83703    3.0907564 
 1960000   0.90414348 -6.6955541e-05   0.48417393 0.0022612885            0   0.48191264    1.3494341    1.8336081   -2.7943589 
 1965000   0.90747057 -3.4927215e-06   0.47836388 0.0022406112            0   0.47612327    1.3543998    1.8327637    1.5913468 
 1970000   0.92010771 8.977742e-06   0.44169964 0.0010077293            0   0.44069191    1.3732608    1.8149604    2.4355019 
 1975000   0.89833672 6.0236455e-06   0.49419598 0.0020867745            0   0.49210921    1.3407676    1.8349635    2.2513179 
 1980000   0.90846332 4.5331619e-05   0.50509099  0.011673591            0    0.4934174    1.3558815    1.8609725     4.994294 
 1985000   0.89212486 -1.8479807e-07   0.52146676 0.0093625466            0   0.51210421    1.3314964    1.8529631    1.8401899 
 1990000   0.92159495 -2.3590792e-05   0.49737034 0.0092578347            0   0.48811251    1.3754805    1.8728508   0.24225526 
 1995000    0.9657987 4.7241684e-05   0.43710364  0.026600007            0   0.41050363    1.4414546    1.8785582    5.1439034 
 2000000   0.95763022 1.4277926e-06   0.46627952  0.021603506            0   0.44467601    1.4292631    1.8955426    1.9942316 
 2005000   0.95626966 6.3418971e-05   0.46447521 0.0047497998            0   0.45972541    1.4272325    1.8917077     6.275227 
 2010000   0.96370442 -1.0371966e-05   0.48500911 0.0044224179            0   0.48058669    1.4383288     1.923338    1.2064277 
 2015000   0.97132557 -1.3770411e-05   0.45639721  0.010137175            0   0.44626003    1.4497034    1.9061006   0.95428985 
 2020000   0.95382755 -5.3518703e-05   0.46742236   0.01550463            0   0.45191773    1.4235876      1.89101   -1.8082028 
 2025000   0.96557833 4.519825e-05   0.44726357 0.0049354679            0    0.4423281    1.4411257    1.8883892    5.0124923 
 2030000   0.97701722 -4.5494308e-06   0.43455363  0.001553906            0   0.43299973    1.4581982    1.8927518    1.5782952 
 2035000   0.95978847 -4.9846704e-05   0.45381552 0.00092854024            0   0.45288698    1.4324843    1.8862998   -1.5591043 
 2040000    1.0023716 -4.9665237e-05   0.41155613 0.0039171086            0   0.40763902    1.4960396    1.9075957   -1.5252654 
 2045000   0.94602009 4.3468476e-05   0.49172549  0.015794733            0   0.47593076     1.411935    1.9036605    4.9082015 
 2050000   0.95681216 2.6705802e-05   0.48525515 0.0076818528            0    0.4775733    1.4280422    1.9132973    3.7592024 
 2055000    0.9544313 -3.0177166e-05    0.4895799 0.00030576028            0   0.48927414    1.4244887    1.9140686  -0.17177711 
 2060000   0.98622879 2.7458447e-05   0.43250873 0.00070757139            0   0.43180116    1.4719465    1.9044552     3.802383 
 2065000   0.92240836 -5.125927e-05   0.52737949 0.0022023635            0   0.52517712    1.3766945     1.904074   -1.6389668 
 2070000   0.95490915 -3.9418781e-05   0.48274495 0.0039782393            0   0.47876671    1.4252019    1.9079469  -0.81667926 
 2075000   0.98161494 -1.6278859e-05   0.46158789 0.0036760062            0   0.45791188    1.4650603    1.9266482   0.80145346 
 2080000   0.93978331 -2.2941581e-06   0.50978673 0.0069151964            0   0.50287154    1.4026266    1.9124133    1.7538411 
 2085000   0.94464894 4.5985401e-05   0.48271464  0.010886852            0   0.47182779    1.4098886    1.8926032    5.0711141 
 2090000   0.88180687 -2.167026e-06   0.56554267 0.0090289946            0   0.55651368    1.3160967    1.8816394    1.7318546 
 2095000    1.0031355 -2.7718863e-05   0.37659376 0.0020167794            0   0.37457698    1.4971797    1.8737734 -0.042154405 
 2100000   0.93086417 5.9346046e-05   0.49398565 0.0010767098            0   0.49290894    1.3893148    1.8833004    5.9852991 
 2105000   0.90133995 -7.0869882e-05   0.56125554 0.0041923627            0   0.55706317    1.3452499    1.9065054   -2.9920208 
 2110000   0.94215502 8.0799335e-07    0.5058402 0.0099693062            0    0.4958709    1.4061664    1.9120066    1.9678551 
 2115000   0.94536692 4.4936841e-05   0.50790116 0.0069739494            0   0.50092721    1.4109601    1.9188613    5.0248957 
 2120000   0.96088126 3.7731306e-05   0.48430133 0.0020009613            0   0.48230036    1.4341153    1.9184166    4.5264045 
 2125000    0.9601607 1.0391441e-05    0.4819221 0.0020025882            0   0.47991951    1.4330398    1.9149619    2.6332183 
 2130000   0.91858622 -4.2660777e-05   0.54688299 0.0056530637            0   0.54122992    1.3709899    1.9178729     -1.03084 
 2135000   0.95388474 7.1593665e-05   0.49342121 0.0012884838            0   0.49213273     1.423673    1.9170942    6.8656483 
 2140000   0.98927676 3.4614249e-05   0.44733788 0.00022384988            0   0.44711403    1.4764956    1.9238334    4.3163703 
 2145000    0.9696535 -1.2425353e-05   0.48806018 0.0022713162            0   0.48578886    1.4472079     1.935268    1.0764276 
 2150000   0.94266477 2.3159578e-06   0.50687042  0.011530264            0   0.49534015    1.4069272    1.9137976    2.0738766 
 2155000   0.96719188 -8.1269718e-05    0.4951213  0.015651698            0   0.47946961    1.4435339    1.9386552   -3.6787077 
 2160000   0.97371267 1.2325383e-05   0.48039972 0.0089252395            0   0.47147448    1.4532662    1.9336659    2.7855964 
 2165000   0.97397779 5.0564651e-05   0.47706567 0.0049351873            0   0.47213048    1.4536618    1.9307275    5.4257562 
 2170000   0.98263769 -1.9656997e-05   0.44715907  0.011309198            0   0.43584987    1.4665867    1.9137458   0.55505416 
 2175000   0.97920814 1.1434123e-05   0.46211841  0.015392767            0   0.44672565    1.4614682    1.9235866    2.7139131 
 2180000   0.93906673 4.4386618e-05   0.51646538  0.013433889            0   0.50303149    1.4015571    1.9180225    4.9860255 
 2185000   0.95780783 1.0747838e-05   0.49387849 0.0060269603            0   0.48785153    1.4295282    1.9234067    2.6662973 
 2190000   0.94401592 -2.8308354e-07   0.51373367 0.0079149018            0   0.50581877    1.4089438    1.9226774    1.9031107 
 2195000   0.98658058 2.2702676e-05   0.46345596  0.019293269            0   0.44416269    1.4724715    1.9359275    3.5051365 
 2200000   0.97370826 -5.3286475e-06   0.49440904  0.011232262            0   0.48317678    1.4532596    1.9476686    1.5793525 
 2205000   0.95066581 3.8061034e-05   0.49673512  0.013095645            0   0.48363948    1.4188687    1.9156039    4.5463825 
 2210000    0.9957822 8.1135533e-06    0.4404262 0.0073631282            0   0.43306307    1.4862049    1.9266311    2.4874399 
 2215000    1.0014257 -3.3771332e-05   0.44500649  0.008134185            0   0.43687231    1.4946278    1.9396343  -0.39464019 
 2220000    1.0165407 3.4692644e-05   0.43853155 0.0098163092            0   0.42871524    1.5171869    1.9557185     4.353674 
 2225000    1.0076034 3.1889566e-05   0.46669852  0.013436287            0   0.45326223    1.5038481    1.9705466    4.1747534 
 2230000   0.98239501 9.4263651e-06   0.49603959  0.016712772            0   0.47932682    1.4662245    1.9622641    2.6138145 
 2235000    1.0132704 -2.851766e-05   0.44761225  0.010103274            0   0.43750897    1.5123061    1.9599183 -0.011222346 
 2240000    1.0152362 1.4624511e-05   0.43851349 0.00063245904            0   0.43788104      1.51524    1.9537535    2.9645997 
 2245000   0.98050424 -2.4854961e-05   0.49993767  0.010729384            0   0.48920829    1.4634026    1.9633402   0.24536533 
 2250000   0.98248187 5.531039e-05    0.5039863 0.0071374845            0   0.49684882    1.4663542    1.9703405    5.7933946 
 2255000    0.9770496 -5.3036547e-05   0.50557502 0.0010930215            0     0.504482    1.4582465    1.9638215   -1.7020646 
 2260000    1.0219145 -3.2051777e-05   0.45483543 0.0052471368            0    0.4495883    1.5252074    1.9800429  -0.23537597 
 2265000     1.024851 -5.5317461e-06   0.47511049 0.0070769945            0    0.4680335    1.5295902    2.0047007    1.6223464 
 2270000     1.023856 -4.3868068e-05   0.46156848 0.00091052154            0   0.46065795     1.528105    1.9896735   -1.0424873 
 2275000    1.0341736 -1.5167304e-05    0.4594687 0.0015153652            0   0.45795334    1.5435042    2.0029729    0.9546088 
 2280000    1.0298623 3.3076227e-05   0.46933615 0.0031258909            0   0.46621026    1.5370695    2.0064056    4.2926344 
 2285000      1.06567 2.619829e-05   0.43286093 0.0094258856            0   0.42343505    1.5905125    2.0233734    3.8341992 
 2290000    1.0211045 -2.6599713e-05    0.4913716  0.020590631            0   0.47078097    1.5239985    2.0153701   0.17679799 
 2295000    1.0242493 -4.355337e-05   0.50506685  0.010770284            0   0.49429657     1.528692    2.0337589  -0.97665004 
 2300000    1.0573456 -6.1826693e-05    0.4562506  0.010223962            0   0.44602664    1.5780883    2.0343389   -2.2391221 
 2305000    1.0767372 4.4948919e-05   0.40854977 0.0015830758            0    0.4069667    1.6070303    2.0155801    5.1224494 
 2310000    1.0085127 -2.3102553e-05   0.50462318 0.0014161653            0   0.50320701    1.5052052    2.0098284   0.41297995 
 2315000    1.0306787 5.2110443e-05   0.48860511  0.015575202            0    0.4730299     1.538288    2.0268931    5.6287669 
 2320000    1.0291972 -1.7270581e-05   0.49286603  0.021737752            0   0.47112828    1.5360768    2.0289429   0.83520029 
 2325000     1.039032 -5.1087914e-05   0.48389048 0.0058795266            0   0.47801096    1.5507553    2.0346457   -1.4965509 
 2330000    1.0147307 -1.3240111e-05   0.52588128  0.010434533            0   0.51544675    1.5144856    2.0403669    1.1252104 
 2335000    1.0024195 -6.6539369e-05   0.54874769 0.0094416709            0   0.53930602    1.4961112    2.0448588   -2.5543423 
 2340000    1.0610522 2.3810583e-05   0.45813601  0.014511862            0   0.44362415    1.5836205    2.0417565     3.687544 
 2345000    1.0471909 -1.3004075e-05   0.47748801  0.032974944            0   0.44451306    1.5629324    2.0404204    1.1415787 
 2350000    1.0180391 -7.2146958e-05    0.5243551  0.014675657            0   0.50967944    1.5194234    2.0437785   -2.9430192 
 2355000    1.0935334 3.9347021e-05   0.41693823  0.011609253            0   0.40532898    1.6320985    2.0490368    4.7687028 
 2360000    1.0799129 3.7082289e-05   0.44029845 0.0093173487            0   0.43098111    1.6117701    2.0520685    4.6151963 
 2365000    1.0565017 -4.0653428e-05   0.47534499 0.0025891928            0   0.47275579    1.5768288    2.0521737  -0.75779123 
 2370000    1.0853368 2.7298585e-05   0.45525348 0.0005421812            0    0.4547113    1.6198652    2.0751187    3.9619969 
 2375000    1.0428207 -8.1861278e-06   0.53671623 0.0017152072            0   0.53500102    1.5564099    2.0931261     1.527301 
 2380000    1.0960718 3.2479625e-06   0.44977301 0.0031833243            0   0.44658969    1.6358872    2.0856602    2.3101594 
 2385000    1.1098436 4.2272316e-05   0.42492748 0.0068765903            0   0.41805089    1.6564415     2.081369    5.0032314 
 2390000    1.0875571 -1.8713201e-05   0.46304655  0.007061022            0   0.45598553     1.623179    2.0862255   0.79276906 
 2395000    1.0479113 -1.9556808e-05   0.52757878 0.0069779296            0   0.52060085    1.5640077    2.0915864   0.73981988 
 2400000    1.0630993 -2.4883954e-05   0.51732119 0.0050520002            0   0.51226919    1.5866756    2.1039968   0.38401793 
 2405000    1.1040676 2.7717946e-05   0.45290818  0.015331022            0   0.43757716     1.647821    2.1007291    4.0165935 
 2410000    1.0639563 -4.8515116e-06    0.4950471  0.025554208            0   0.46949289    1.5879547    2.0830018    1.7476653 
 2415000    1.0859723 -1.074205e-05   0.44836693   0.01980509            0   0.42856184    1.6208136    2.0691806    1.3266901 
 2420000    1.0569356 -1.5164433e-05   0.48940806 0.0038658157            0   0.48554224    1.5774763    2.0668844    1.0187187 
 2425000    1.1123701 -1.5930114e-05   0.40563903 0.0002627166            0   0.40537631    1.6602123    2.0658514   0.96476187 
 2430000    1.0649753 1.4341594e-05   0.46440982 0.00055489903            0   0.46385492    1.5894757    2.0538855    3.0451764 
 2435000    1.1271311 -3.5899741e-05   0.39499402 0.0048471376            0   0.39014688    1.6822432    2.0772373  -0.40415288 
 2440000    1.0684166 2.8199737e-05   0.50449296  0.020529358            0   0.48396361    1.5946117    2.0991047    4.0482705 
 2445000    1.1079827 2.9114207e-05   0.44959966  0.036211114            0   0.41338855    1.6536642    2.1032639    4.1156378 
 2450000    1.0646881 4.4635392e-06   0.51336218  0.025402715            0   0.48795947     1.589047    2.1024092     2.410929 
 2455000    1.1344907 -1.0887472e-05   0.40852577 0.0055366355            0   0.40298914    1.6932274    2.1017532    1.3492111 
 2460000    1.0547817 1.6129815e-05   0.52482711 0.00012079578            0   0.52470632    1.5742617    2.0990888    3.2139816 
 2465000     1.091079 -4.3617924e-05   0.47913923 0.0027285309            0    0.4764107    1.6284354    2.1075746  -0.90729632 
 2470000    1.0966083 -3.465931e-05   0.48587417 0.0083885281            0   0.47748565    1.6366879    2.1225621  -0.27308945 
 2475000    1.1227853 4.621513e-05   0.45021451 0.0015593877            0   0.44865512    1.6757571    2.1259716    5.3203613 
 2480000     1.117487 1.0009554e-05   0.44971551 0.0059343979            0   0.44378111    1.6678494    2.1175649    2.8094252 
 2485000    1.1088588 -1.3029699e-05   0.45014092 0.0036224391            0   0.44651848    1.6549717    2.1051126    1.2044998 
 2490000    1.1357503 -6.6346264e-06   0.44148289  0.002662548            0   0.43882034    1.6951073    2.1365902    1.6780048 
 2495000    1.1586335 3.4111609e-06   0.41025677 0.0057409177            0   0.40451585    1.7292605    2.1395173    2.3752967 
 2500000    1.1169402 -6.8343791e-05    0.4855753   0.02932766            0   0.45624764    1.6670332    2.1526085   -2.5713143 
 2505000    1.1262099 -3.9443548e-05   0.45351135  0.025427321            0   0.42808402    1.6808683    2.1343797  -0.59195834 
 2510000    1.1263773 6.0808995e-05   0.43894385  0.023895056            0   0.41504879    1.6811182     2.120062    6.3231797 
 2515000    1.0718815 -5.7794168e-05   0.51925817  0.019293968            0    0.4999642    1.5997831    2.1190412   -1.8756917 
 2520000    1.1028119 6.7221057e-05   0.46372622  0.018951175            0   0.44477504    1.6459468     2.109673    6.7559925 
 2525000    1.1086472 -2.8183681e-05    0.4559131  0.027012235            0   0.42890087     1.654656    2.1105691   0.16251303 
 2530000    1.1121139 -2.5406317e-05   0.45449573 0.0076700797            0   0.44682565    1.6598299    2.1143257   0.35824104 
 2535000    1.0608366 1.5284064e-05   0.54484928  0.012049113            0   0.53280017    1.5832986    2.1281479    3.1845824 
 2540000    1.1088704 -3.87718e-05    0.4803882  0.023228548            0   0.45715965    1.6549891    2.1353773  -0.54452947 
 2545000    1.1398107 4.0351652e-05   0.44501659  0.013003032            0   0.43201356    1.7011675    2.1461841    4.9352902 
 2550000    1.1341936 -6.4693363e-06    0.4643189 0.0046744169            0   0.45964448     1.692784    2.1571029    1.7099423 
 2555000    1.0980006 -3.7430397e-05   0.52222625  0.012520461            0   0.50970579    1.6387659    2.1609922  -0.42619687 
 2560000    1.1259713 6.8020457e-05   0.47465775  0.017398019            0   0.45725973    1.6805121    2.1551699    6.8567439 
 2565000    1.1195198 -3.2065925e-05   0.50526535 0.0057702613            0   0.49949509    1.6708833    2.1761486 -0.040248068 
 2570000    1.1406514 -5.5401267e-05     0.468465  0.012487676            0   0.45597733    1.7024223    2.1708873   -1.6584483 
 2575000    1.1084097 3.1347749e-06    0.5226699  0.022609177            0   0.50006073    1.6543014    2.1769713     2.393647 
 2580000    1.1666683 -3.0482428e-05   0.44533094 0.0049318704            0   0.44039907    1.7412524    2.1865833  0.079637894 
 2585000    1.1292272 -2.0260755e-06   0.48941911   0.00395613            0   0.48546298    1.6853716    2.1747907    2.0347484 
 2590000    1.1633781 -3.1681417e-05   0.44300495 0.0045528953            0   0.43845206    1.7363419    2.1793468 -0.010472692 
 2595000    1.1610041 3.4562023e-05    0.4710709 0.0020507815            0   0.46902012    1.7327986    2.2038695    4.5927965 
 2600000    1.1191329 5.4647574e-07   0.52631953 0.0063299265            0    0.5199896    1.6703059    2.1966254    2.2343978 
 2605000    1.0623823 -2.0021385e-05   0.59994551  0.029659182            0   0.57028633    1.5856056    2.1855511   0.80167298 
 2610000    1.1326658 5.2317487e-05   0.50317672  0.017682614            0    0.4854941    1.6905037    2.1936804    5.8098651 
 2615000    1.1063552 -3.571641e-05   0.54634212  0.010597608            0   0.53574451    1.6512351    2.1975772  -0.27114106 
 2620000    1.1346766 1.899587e-05   0.49005945 0.0070922093            0   0.48296724    1.6935049    2.1835643    3.4965589 
 2625000    1.1135498 -1.5807723e-05   0.52240989 0.0047215088            0   0.51768838    1.6619731     2.184383    1.0917532 
 2630000    1.1445394 2.7046754e-05    0.4813802  0.020533934            0   0.46084627    1.7082251    2.1896053    4.0590769 
 2635000    1.1195819 -7.0471835e-05   0.52921197  0.016968043            0   0.51224392     1.670976    2.2001879   -2.6708253 
 2640000    1.1338858 -8.4060124e-06   0.51125868  0.013889855            0   0.49736882    1.6923245    2.2035832    1.6225596 
 2645000    1.1577594 3.1154474e-05   0.47270217 0.0083312149            0   0.46437096    1.7279559    2.2006581    4.3540554 
 2650000    1.1196242 -2.7317246e-05   0.53856816  0.017928403            0   0.52063975    1.6710392    2.2096073   0.32143933 
 2655000    1.1268921 3.5262549e-05   0.50527848  0.019353781            0    0.4859247    1.6818864    2.1871649    4.6245123 
 2660000     1.096457 5.4434531e-05   0.53699425 0.0092038805            0   0.52779037     1.636462    2.1734563     5.935971 
 2665000    1.1057273 -4.5343614e-05    0.5314961 0.0046233824            0   0.52687272     1.650298    2.1817941  -0.95235652 
 2670000    1.1192839 5.6354183e-05   0.47366353 0.00050306812            0   0.47316046    1.6705313    2.1441948    6.0393959 
 2675000    1.0865456 -4.7784694e-06   0.51242508 0.00059117527            0    0.5118339    1.6216692    2.1340943    1.8038065 
 2680000     1.102139 -6.766802e-06   0.47788276 0.00018148011            0   0.47770128    1.6449425    2.1228252    1.6551039 
 2685000     1.037079 -3.2376811e-05   0.57597651 0.0085743492            0   0.56740216    1.5478405     2.123817  -0.11406821 
 2690000    1.0359887 -3.9831469e-05   0.60211059  0.020593718            0   0.58151688    1.5462131    2.1483237  -0.60482743 
 2695000    1.0515757 -2.7156671e-05   0.58712335  0.034623499            0   0.55249985    1.5694768    2.1566002   0.27953108 
 2700000    1.0991419 1.927355e-05   0.50752276  0.012337281            0   0.49518548    1.6404693    2.1479921    3.4801798 
 2705000    1.0794093 1.1080976e-05   0.53071605 0.0089228564            0    0.5217932    1.6110183    2.1417344    2.9076514 
 2710000    1.1293878 -4.0489824e-07   0.47961181 0.0023228568            0   0.47728896    1.6856113    2.1652232    2.1372366 
 2715000    1.0950753 6.1385575e-06   0.51247373 0.0087106546            0   0.50376308    1.6343999    2.1468736    2.5711707 
 2720000    1.0370809 2.8553718e-05   0.60414377  0.020980159            0   0.58316361    1.5478432     2.151987      4.12562 
 2725000     1.079026 6.676429e-05   0.52135309 0.0089383283            0   0.51241476    1.6104463    2.1317994    6.7465471 
 2730000    1.1471951 5.3048602e-05   0.43713671 0.0096140644            0   0.42752265    1.7121887    2.1493254    5.8160448 
 2735000     1.086122 -1.4607291e-05   0.51703812   0.02789505            0   0.48914307     1.621037    2.1380751    1.1284192 
 2740000    1.0803772 -2.894478e-06   0.53750991  0.016455803            0   0.52105411     1.612463    2.1499729    1.9499066 
 2745000    1.1195748 4.5467327e-05   0.48050064  0.018033775            0   0.46246686    1.6709653     2.151466    5.2941676 
 2750000    1.0725229 1.394321e-05   0.55405944  0.021500116            0   0.53255933    1.6007405    2.1547999    3.1185546 
 2755000    1.0622712 -1.9468701e-05   0.56985964  0.010627251            0   0.55923239    1.5854398    2.1552994   0.80962281 
 2760000    1.1224099 -3.2963345e-05   0.47303401 0.0061906605            0   0.46684335    1.6751968    2.1482308  -0.13019563 
 2765000    1.0827434 1.4396513e-05   0.53359746 0.0073772567            0   0.52622021    1.6159945     2.149592    3.1446789 
 2770000    1.0870419 3.7894311e-05   0.51943519  0.012558415            0   0.50687678      1.62241    2.1418452       4.7611 
 2775000    1.0740335 6.0335277e-07   0.52728109 0.0081186807            0   0.51916241    1.6029949     2.130276    2.1719798 
 2780000    1.0532124 2.5007835e-05   0.55301112 0.0054652909            0   0.54754583    1.5719195    2.1249306    3.8534722 
 2785000     1.038944 -3.78862e-05   0.55414739 0.0087344096            0   0.54541298     1.550624    2.1047714  -0.51392275 
 2790000    1.0815768 -4.662162e-05   0.50195287  0.010498581            0   0.49145429    1.6142533    2.1162062   -1.1062802 
 2795000    1.0671568 4.4032922e-05   0.53207407  0.018227441            0   0.51384663    1.5927316    2.1248057    5.1683612 
 2800000    1.0932469 1.506438e-05   0.50566097 0.0044299213            0   0.50123104     1.631671    2.1373319    3.1785819 
 2805000    1.0818687 2.5613027e-05    0.5156525  0.019792949            0   0.49585956     1.614689    2.1303415     3.900714 
 2810000    1.1222479 1.0312468e-05   0.46341638  0.016878716            0   0.44653767     1.674955    2.1383713    2.8511691 
 2815000     1.137797 -6.2815513e-05   0.44273772 0.0096617326            0   0.43307599     1.698162    2.1408998   -2.2009085 
 2820000     1.110483 -5.0851883e-05   0.47065281 0.0041176695            0   0.46653514    1.6573959    2.1280488   -1.3868334 
 2825000    1.0935236 -8.4492515e-07   0.49582199  0.014078352            0   0.48174364    1.6320839    2.1279059    2.0695047 
 2830000    1.1015484 2.4881231e-05    0.4798442  0.008444034            0   0.47140017    1.6440609    2.1239051    3.8436958 
 2835000    1.0899509 2.5562896e-05   0.49293505  0.012720762            0   0.48021428    1.6267517    2.1196868    3.8865941 
 2840000    1.0795521 -4.9338535e-05   0.51283326 0.0055204722            0   0.50731279    1.6112316    2.1240648   -1.2862147 
 2845000    1.0807031 4.2431128e-05   0.53381937 0.0076948051            0   0.52612457    1.6129494    2.1467687    5.0796083 
 2850000    1.0792667 -2.2353375e-07   0.54498542  0.010209584            0   0.53477583    1.6108055     2.155791    2.1403403 
 2855000    1.0586754 -1.4130781e-05   0.56715725  0.020476516            0   0.54668073     1.580073    2.1472302    1.1705107 
 2860000    1.1215838 7.7527403e-06   0.46801255  0.022531077            0   0.44548148    1.6739638    2.1419763    2.6778457 
 2865000    1.0888904 -1.1231293e-05    0.5093313   0.02688175            0   0.48244955    1.6251688    2.1345002    1.3581932 
 2870000    1.1322887 1.3932023e-05   0.45158354 0.0090263766            0   0.44255717    1.6899408    2.1415244    3.1045058 
 2875000     1.115291 -3.5827036e-05   0.46555534 0.0054082503            0   0.46014709    1.6645718    2.1301272  -0.34623756 
 2880000    1.1271193 -8.5580405e-06   0.44557765 0.0059820737            0   0.43959557    1.6822255    2.1278032    1.5362714 
 2885000    1.1201383 -1.3379244e-05   0.46168846 0.0087138612            0    0.4529746    1.6718064    2.1334949    1.2087215 
 2890000     1.121637 -1.8906279e-05   0.45669626 0.0066719248            0   0.45002434    1.6740432    2.1307394   0.82393741 
 2895000    1.1065959 1.3654221e-05   0.48210107 0.0079856113            0   0.47411546    1.6515944    2.1336954    3.0774752 
 2900000    1.0373197 -5.6953849e-05   0.57733325  0.024107704            0   0.55322555    1.5481997     2.125533   -1.8111171 
 2905000    1.1302444 1.8487383e-05   0.43068021  0.007524031            0   0.42315618    1.6868898      2.11757    3.3954179 
 2910000    1.0915474 8.9073431e-05   0.49201435 0.0077071425            0    0.4843072    1.6291346    2.1211489    8.2779045 
 2915000    1.1312594 -5.5386463e-05   0.44893068 0.0067136078            0   0.44221707    1.6884047    2.1373353    -1.690977 
 2920000    1.1501921 2.1435477e-05   0.41861774  0.010449703            0   0.40816803    1.7166617    2.1352794    3.6168996 
 2925000    1.0891573 8.1371493e-05   0.49761726  0.012919722            0   0.48469754    1.6255672    2.1231845    7.7475821 
 2930000    1.1100519 -4.5334936e-05   0.47575103 0.0092503669            0   0.46650066    1.6567525    2.1325035   -1.0010473 
 2935000    1.1422112 4.1795929e-05   0.44505663 0.0069341499            0   0.43812248    1.7047502    2.1498068    5.0387415 
 2940000    1.0704907 5.0052446e-05   0.53551606  0.021326743            0   0.51418932    1.5977074    2.1332235    5.5928486 
 2945000    1.1014228 6.1868081e-05   0.45452693  0.028450489            0   0.42607644    1.6438736    2.0984005    6.3747223 
 2950000    1.0878033 -8.5895433e-05   0.48545562  0.019838184            0   0.46561743    1.6235464     2.109002   -3.8280903 
 2955000    1.0859308 2.4962829e-05   0.50582877  0.012432913            0   0.49339585    1.6207517    2.1265804    3.8520111 
 2960000    1.1355016 -2.9373518e-05     0.415877 0.0056663541            0   0.41021064    1.6947362    2.1106132  0.080315602 
 2965000    1.1005975 -4.9794559e-06   0.46020663  0.007946647            0   0.45225999    1.6426418    2.1028484    1.7586684 
 2970000    1.1110523 -1.6908467e-05   0.45009437  0.014656723            0   0.43543765    1.6582456      2.10834   0.93962677 
 2975000    1.0967108 -7.5361064e-05    0.4578696  0.013424887            0   0.44444471    1.6368409    2.0947105   -3.1142463 
 2980000    1.0705157 9.2996094e-05   0.49685268  0.018371816            0   0.47848086    1.5977447    2.0945974    8.5224874 
 2985000    1.1087284 -5.0512932e-05   0.44108078  0.011486376            0    0.4295944    1.6547771    2.0958579   -1.3955959 
 2990000    1.1012148 2.9657438e-05   0.45364954  0.010112859            0   0.44353668    1.6435632    2.0972127    4.1471348 
[...]
19285000   0.97151675 -3.5559012e-05   0.45830259  0.014386742            0   0.44391585    1.4499887    1.9082913  -0.54954756 
19290000   0.93017847 4.5125619e-05   0.51568319  0.015162565            0   0.50052063    1.3882914    1.9039746    5.0230574 
19295000   0.93557884 6.1158383e-05   0.50220895  0.015710712            0   0.48649823    1.3963514    1.8985604    6.1258278 
19300000   0.93215155 1.5442298e-05   0.52967639  0.010183226            0   0.51949317    1.3912362    1.9209126    2.9882842 
19305000   0.97934354 -1.239255e-05   0.47431702 0.0089047361            0   0.46541228    1.4616702    1.9359873    1.0794142 
19310000   0.99557072 -5.7659886e-05   0.44990027 0.0026837092            0   0.44721656    1.4858893    1.9357896   -2.0496617 
19315000   0.91959796 -4.2939803e-05   0.55573874  0.013154294            0   0.54258445       1.3725    1.9282387   -1.0397605 
19320000   0.98009321 -9.7622269e-08   0.46205185 0.0080006066            0   0.45405124    1.4627891     1.924841    1.9180933 
19325000   0.96139389 1.8088648e-05   0.49719295  0.012644391            0   0.48454856    1.4348804    1.9320733    3.1823607 
19330000   0.98801835 2.1529538e-05   0.45511827  0.012547455            0   0.44257081    1.4746174    1.9297357    3.4178573 
19335000   0.96640311 1.7881983e-05   0.48445734  0.027452173            0   0.45700516    1.4423566     1.926814    3.1628166 
19340000   0.94060256 8.4088693e-06   0.52847758  0.031960655            0   0.49651692    1.4038493    1.9323269    2.5135479 
19345000    0.9790033 8.3665616e-06   0.48437453  0.015930757            0   0.46844377    1.4611624     1.945537    2.5238337 
19350000   0.99064326 -1.5176747e-05   0.46975644  0.016867889            0   0.45288855    1.4785351    1.9482915   0.89927476 
19355000   0.98196184 -1.0596038e-05   0.47267093  0.017630767            0   0.45504016     1.465578     1.938249    1.2058508 
19360000   0.99762318 1.5219259e-05   0.44253737  0.013686892            0   0.42885048    1.4889526      1.93149    2.9834451 
19365000   0.99937724 -5.0537619e-05   0.44941698   0.01250278            0    0.4369142    1.4915705    1.9409875   -1.5521727 
19370000    1.0320323 -2.4005436e-06   0.39494925  0.017983242            0   0.37696601    1.5403082    1.9352575    1.7693319 
19375000   0.97173971 4.561836e-05   0.47938519  0.014295914            0   0.46508928    1.4503215    1.9297067    5.0828478 
19380000   0.92959683 4.6252088e-05   0.54637459  0.013472992            0    0.5329016    1.3874233    1.9337979    5.1307422 
19385000    1.0145312 -3.9094607e-05   0.42718549 0.0084598387            0   0.41872565    1.5141878    1.9413733  -0.76084594 
19390000   0.97236778 6.1775214e-06   0.47420788 0.0012272008            0   0.47298068    1.4512589    1.9254668    2.3524571 
19395000   0.98889852 3.5835448e-05   0.43397935 0.0046558423            0   0.42932351     1.475931    1.9099104    4.3868565 
19400000   0.90415858 -1.6398779e-05    0.5434077  0.021344821            0   0.52206288    1.3494567    1.8928644   0.75938077 
19405000   0.92896102 -1.2517037e-05   0.49504642  0.051886933            0   0.44315948    1.3864743    1.8815207    1.0163431 
19410000   0.93547925 -2.1796764e-05    0.4982321  0.028471025            0   0.46976107    1.3962028    1.8944349   0.38784252 
19415000   0.94176521 -2.3551073e-05   0.50384877  0.016347781            0   0.48750099    1.4055846    1.9094334   0.28158317 
19420000    0.8941119 3.0753263e-05   0.55564575  0.019664883            0   0.53598087     1.334462    1.8901078    4.0157733 
19425000   0.96753669 7.0054901e-06   0.45438126  0.019464163            0   0.43491709    1.4440485    1.8984298    2.3826492 
19430000   0.94317925 6.4168742e-06   0.48179775  0.026079675            0   0.45571808     1.407695    1.8894928    2.3330271 
19435000   0.93868085 -2.6579507e-05   0.48879798  0.019491565            0   0.46930641    1.4009812    1.8897791  0.052603644 
19440000   0.95399051 -3.6473912e-05   0.48438474 0.0070715861            0   0.47731316    1.4238308    1.9082156  -0.61286119 
19445000   0.96935917 2.3434279e-05   0.47252706  0.013718507            0   0.45880856    1.4467686    1.9192956     3.539073 
19450000   0.96314629 3.0347627e-05   0.48608278  0.035738871            0   0.45034391    1.4374958    1.9235786    4.0212066 
19455000   0.93620847 2.6931025e-06   0.54146456  0.024831702            0   0.51663286    1.3972911    1.9387557    2.1249029 
19460000   0.94921621 -1.7392713e-07   0.53162902 0.0067471005            0   0.52488192    1.4167052    1.9483342    1.9363124 
19465000    1.0136302 -3.1354427e-05     0.426477  0.011754715            0   0.41472228    1.5128431    1.9393201   -0.2278979 
19470000   0.97917268 2.9895722e-05   0.47526612  0.016790991            0   0.45847513    1.4614152    1.9366813    4.0030737 
19475000    0.9625503 2.8958134e-05   0.49384379 0.0085945184            0   0.48524927    1.4366063    1.9304501    3.9320363 
19480000   0.97754238 4.3697093e-06   0.47613245  0.013453261            0   0.46267919     1.458982    1.9351145    2.2371488 
19485000   0.96441963 -2.7039255e-06    0.4970217  0.012580518            0   0.48444118    1.4393963     1.936418    1.7495227 
19490000   0.99159137 5.491213e-05   0.47409512  0.018359893            0   0.45573523    1.4799501    1.9540452    5.7495717 
19495000   0.99612703 2.8737054e-05   0.45288726  0.010355628            0   0.44253163    1.4867196    1.9396069     3.925912 
19500000    0.9951934 -1.0900484e-05    0.4618835   0.01373744            0   0.44814606    1.4853262    1.9472097    1.1937682 
19505000    1.0031859 -2.6690516e-05   0.43301156  0.006002894            0   0.42700867    1.4972549    1.9302665  0.085418023 
19510000   0.95062932 -3.3583624e-05   0.50307247 0.0030607752            0   0.50001169    1.4188143    1.9218867  -0.39941336 
19515000   0.97003517 -4.4825578e-05   0.43986308 0.0050031287            0   0.43485995    1.4477775    1.8876406   -1.2107034 
19520000   0.92716392 1.0639857e-05   0.50727821  0.012958606            0   0.49431961    1.3837922    1.8910704    2.6264973 
19525000   0.90375537 5.3967081e-05   0.51989815  0.037249501            0   0.48264865    1.3488549     1.868753    5.5989577 
19530000   0.93454813 1.3468591e-05   0.49093409  0.021685489            0    0.4692486    1.3948131    1.8857472    2.8166962 
19535000   0.94371525 -4.1630164e-05   0.48700881   0.01588874            0   0.47112007     1.408495    1.8955038  -0.98197309 
19540000   0.95105419 8.2505323e-06   0.46327696  0.017356155            0   0.44592081    1.4194484    1.8827253    2.4530021 
19545000   0.94672493 4.5722659e-06   0.47774432  0.007890461            0   0.46985386     1.412987    1.8907313    2.2067663 
19550000   0.96955713 -1.2871102e-05   0.46094474 0.0085890679            0   0.45235567     1.447064    1.9080088    1.0183582 
19555000   0.95527304 -6.4593804e-06   0.50611792  0.028149702            0   0.47796822     1.425745    1.9318629    1.4853906 
19560000   0.98390175 3.7466127e-05   0.45723491  0.026314364            0   0.43092054    1.4684734    1.9257083     4.515367 
19565000   0.95282509 5.475396e-05   0.50770563 0.0096604863            0   0.49804514    1.4220915    1.9297971    5.7143908 
19570000   0.97123115 -1.2299939e-05   0.47558869  0.022817009            0   0.45277169    1.4495625    1.9251512    1.0749794 
19575000   0.95167414 -3.7895874e-05   0.49996076  0.019075524            0   0.48088524    1.4203737    1.9203344  -0.69902841 
19580000    0.9948426 1.139308e-05   0.44286435  0.012463108            0   0.43040124    1.4848026    1.9276669    2.7151566 
19585000   0.95379085 2.2208453e-05   0.52235686  0.022412859            0     0.499944    1.4235328    1.9458897     3.480938 
19590000   0.97142317 -3.5363088e-05   0.48992256  0.021059322            0   0.46886323    1.4498491    1.9397716  -0.50452498 
19595000    0.9683058 -4.0852105e-05   0.50293568  0.025814672            0   0.47712101    1.4451964    1.9481321  -0.87556539 
19600000   0.97131475 3.7218399e-05   0.48450728   0.01585441            0   0.46865287    1.4496873    1.9341945    4.5067303 
19605000   0.98634745 2.1219529e-05   0.46878382  0.018075147            0   0.45070867    1.4721236    1.9409074    3.4076012 
19610000   0.98378888 -2.0369513e-05   0.47553851  0.055857609            0    0.4196809    1.4683049    1.9438434   0.53590271 
19615000   0.91332409 2.2106488e-06   0.58117629  0.044277206            0   0.53689909    1.3631362    1.9443125    2.0971125 
19620000   0.96187617 1.684133e-05   0.52759404  0.037115756            0   0.49047829    1.4356002    1.9631942     3.127267 
19625000   0.93833769 -1.7690535e-05   0.55493221  0.013314999            0   0.54161721     1.400469    1.9554012   0.73263142 
19630000   0.98578989 2.3727709e-06   0.46370304 0.0030075006            0   0.46069554    1.4712914    1.9349944    2.0990004 
19635000   0.95428655 1.2192903e-05   0.50004469 0.0052936086            0   0.49475108    1.4242727    1.9243174    2.7670908 
19640000   0.97759281 -3.4365202e-05   0.45279039 0.0064727446            0   0.44631765    1.4590573    1.9118477  -0.46347509 
19645000   0.97724691 -5.4594226e-05   0.46685654 0.0060392179            0   0.46081732     1.458541    1.9253976   -1.8481553 
19650000   0.93678421 -1.7173324e-05   0.49852311 0.0062304539            0   0.49229266    1.3981504    1.8966735   0.70965336 
19655000   0.94688478 -4.1021501e-06   0.46182449  0.025949653            0   0.43587484    1.4132255      1.87505    1.5915094 
19660000   0.87406756 -1.1157378e-05   0.57755854 0.0079818386            0    0.5695767    1.3045458    1.8821044    1.1109064 
19665000   0.93728157 2.433325e-06   0.49092952  0.011489933            0   0.47943959    1.3988927    1.8898223    2.0580137 
19670000   0.93785271 -7.0900354e-06   0.51762801  0.034629006            0   0.48299901    1.3997452    1.9173732    1.4273099 
19675000   0.94388261 -6.2839254e-05   0.50425196  0.026551099            0   0.47770086    1.4087448    1.9129967   -2.4304525 
19680000   0.98103101 3.8857864e-06   0.45087388  0.012858325            0   0.43801555    1.4641888    1.9150627    2.1836482 
19685000   0.91900657 5.263668e-05   0.54143067  0.020095462            0   0.52133521    1.3716173     1.913048    5.5512953 
19690000   0.98389843 5.5361922e-06   0.43353265   0.01018459            0   0.42334806    1.4684684    1.9020011    2.2846627 
19695000   0.96824907 1.2571039e-05   0.45648834 0.0079718955            0   0.44851644    1.4451117    1.9016001    2.7705103 
19700000   0.89283089 2.2282478e-05   0.56383248  0.025620685            0   0.53821179    1.3325501    1.8963826    3.4365475 
19705000   0.93208523 -5.0705588e-06   0.50416404   0.02080783            0   0.48335621    1.3911372    1.8953012    1.5448242 
19710000   0.98560654 -3.6085835e-05   0.41128812  0.016670172            0   0.39461795    1.4710178    1.8823059  -0.61194703 
19715000   0.92316502 -3.1981764e-05   0.48524978  0.012079326            0   0.47317046    1.3778238    1.8630736  -0.34750592 
19720000   0.90990914 6.3302089e-06     0.509929  0.011523424            0   0.49840557    1.3580394    1.8679684    2.3055124 
19725000   0.93427209 1.3737722e-05   0.48903866  0.013077884            0   0.47596078    1.3944011    1.8834398    2.8329911 
19730000    0.9465553 -2.8569986e-05   0.48417843  0.022195652            0   0.46198278    1.4127338    1.8969122  -0.07784522 
19735000   0.94332415 2.3096491e-05   0.46201206  0.039179313            0   0.42283274    1.4079113    1.8699233    3.4663528 
19740000   0.93057058 4.8270801e-06    0.4801498  0.024699592            0   0.45545021    1.3888766    1.8690264    2.2026742 
19745000    0.9572691 -8.1083908e-06   0.43445631  0.025096697            0   0.40935961    1.4287241    1.8631804    1.3027285 
19750000   0.92112667 5.091395e-05   0.48386531  0.016839566            0   0.46702574    1.3747816    1.8586469    5.3778191 
19755000   0.93214052 3.5282875e-05   0.47281648  0.015794078            0   0.45702241    1.3912197    1.8640362    4.3027885 
19760000   0.91980768 -1.8610056e-05   0.50126408 0.0088298945            0   0.49243418     1.372813     1.874077   0.58774993 
19765000   0.96713464 -3.7100236e-05   0.43965379 0.0053430849            0   0.43431071    1.4434484    1.8831022  -0.68126608 
19770000   0.92282695 4.567546e-05    0.5105133  0.010888078            0   0.49962522    1.3773192    1.8878325    5.0449204 
19775000   0.92898812 5.2711407e-05   0.48692311  0.015190417            0   0.47173269    1.3865148    1.8734379    5.5168503 
19780000   0.94043293 2.2043062e-05   0.45106821  0.013970637            0   0.43709757    1.4035961    1.8546644    3.3782808 
19785000   0.89272064 -1.554866e-05   0.52056297   0.01034171            0   0.51022126    1.3323856    1.8529485   0.77822515 
19790000   0.92875181 -3.7359838e-05   0.46547104  0.020100556            0   0.44537049    1.3861621    1.8516331  -0.73067887 
19795000   0.93135316 -9.6072259e-06   0.47679831  0.022734657            0   0.45406365    1.3900446    1.8668429    1.2027914 
19800000   0.93803972 1.4766862e-05   0.49368327  0.013099947            0   0.48058333    1.4000243    1.8937076     2.914393 
19805000   0.96057811 1.0919439e-05   0.46180854 0.0094852901            0   0.45232325    1.4336628    1.8954714     2.650223 
19810000   0.95790253 1.9701103e-05   0.47652439 0.0057423711            0   0.47078202    1.4296695    1.9061939    3.2679341 
19815000   0.99932163 1.9582333e-05   0.41606802  0.010193466            0   0.40587455    1.4914875    1.9075555    3.2610864 
19820000   0.95411401 -1.427844e-05   0.47576931  0.019466582            0   0.45630273    1.4240152    1.8997845   0.91285872 
19825000   0.95010616 5.2751093e-05   0.49611748  0.021002377            0    0.4751151    1.4180334    1.9141509    5.5603065 
19830000    1.0097195 5.6551666e-05    0.4423523   0.01726356            0   0.42508874    1.5070063    1.9493586    5.8582097 
19835000   0.94825899 -1.7422265e-05   0.53456355  0.021867197            0   0.51269635    1.4152765    1.9498401   0.74561314 
19840000   0.93250957 -3.5956932e-05   0.54295639  0.018976868            0   0.52397952    1.3917705    1.9347269  -0.55061626 
19845000     1.012885 1.0091616e-05    0.4442777  0.025580076            0   0.41869762    1.5117309    1.9560086     2.653541 
19850000    1.0124228 -4.0454452e-06   0.47111564 0.0085699305            0   0.46254571     1.511041    1.9821566    1.7025354 
19855000   0.99544449 -2.3803057e-05   0.48281635  0.011069552            0    0.4717468    1.4857009    1.9685172   0.32324997 
19860000   0.98526917 3.9794172e-05    0.4824386  0.015092482            0   0.46734611    1.4705142    1.9529528     4.703526 
19865000   0.97682782 4.7014938e-05   0.48774907  0.018463527            0   0.46928555    1.4579155    1.9456646    5.1953371 
19870000   0.93273338 7.2744351e-06   0.53190946   0.02740633            0   0.50450313    1.3921046     1.924014     2.426823 
19875000   0.99987474 1.7701544e-05   0.43361833  0.024135904            0   0.40948242     1.492313    1.9259314    3.1494621 
19880000    1.0147886 1.3395041e-05   0.41756274  0.011422325            0   0.40614042     1.514572    1.9321348        2.858 
19885000   0.97500905 -8.8501313e-06   0.47161177  0.023171763            0   0.44844001     1.455201    1.9268128    1.3150917 
19890000   0.96247534 -4.4746021e-05   0.49353393 0.0075086551            0   0.48602528    1.4364944    1.9300284   -1.1628166 
19895000    1.0054201 -1.7462872e-05   0.41869924  0.025979304            0   0.39271994    1.5005894    1.9192887   0.71225495 
19900000   0.95659529 1.3013633e-06   0.47889961  0.024331786            0   0.45456782    1.4277185    1.9066181    1.9965683 
19905000   0.91806397 1.2874954e-05   0.53988625  0.034662121            0   0.50522413    1.3702105    1.9100967    2.8000135 
19910000   0.93660219 5.5288514e-05   0.51191629  0.022226691            0    0.4896896    1.3978788    1.9097951    5.7313372 
19915000     0.966931 7.4264877e-05   0.46053957  0.021583566            0     0.438956    1.4431445    1.9036841    7.0368724 
19920000    0.9086695 5.0878486e-05   0.56930652  0.014182693            0   0.55512383    1.3561892    1.9254958    5.4422167 
19925000   0.95486093 2.517832e-05   0.49695929 0.0080448353            0   0.48891446    1.4251299    1.9220892    3.6624147 
19930000   0.95448006 -3.5168814e-05   0.50976913  0.015581706            0   0.49418742    1.4245615    1.9343306  -0.49653778 
19935000    0.9723904 5.4538623e-06   0.47372749  0.017563787            0    0.4561637    1.4512927    1.9250202    2.3019911 
19940000   0.94235366 6.5106396e-05   0.51044555  0.026139991            0   0.48430555    1.4064628    1.9169084    6.4170625 
19945000   0.97476437 6.2726921e-05   0.44672481  0.026874951            0   0.41984986    1.4548358    1.9015606    6.2372454 
19950000   0.93593706 1.5503094e-05    0.5223376  0.033125284            0   0.48921232    1.3968861    1.9192237    2.9907975 
19955000   0.94083113 -3.1200541e-05   0.50977875  0.037965002            0   0.47181375    1.4041905    1.9139692  -0.24261218 
19960000   0.90749612 -1.8543722e-05   0.56523097  0.020363175            0    0.5448678     1.354438    1.9196689   0.63792687 
19965000   0.94614028 -4.712107e-06   0.49892914  0.013646509            0   0.48528263    1.4121144    1.9110435    1.5853427 
19970000   0.97028791 -2.4532029e-05   0.44442936  0.015064391            0   0.42936497    1.4481547    1.8925841   0.19693022 
19975000   0.95115804 -2.7839019e-05   0.46220584  0.034374185            0   0.42783166    1.4196034    1.8818092 -0.042423802 
19980000   0.91670474 3.5111179e-06   0.51524723  0.018698175            0   0.49654906    1.3681818    1.8834291    2.1261175 
19985000    0.9254421 -1.4242211e-06   0.49600787  0.013870393            0   0.48213748    1.3812223    1.8772302     1.778788 
19990000   0.94085033 -1.7965951e-05   0.48228206   0.01297143            0   0.46931063    1.4042191    1.8865012   0.64469467 
19995000   0.97974922 1.3206731e-05   0.45137388 0.0085853853            0   0.44278849    1.4622757    1.9136496    2.8264988 
20000000   0.95977371 2.7901078e-05   0.50434939  0.020297757            0   0.48405163    1.4324623    1.9368117    3.8653342 
Loop time of 569.169 on 1 procs for 20000000 steps with 200 atoms

Performance: 30360.073 tau/day, 35138.973 timesteps/s
99.0% CPU use with 1 MPI tasks x no OpenMP threads

MPI task timing breakdown:
Section |  min time  |  avg time  |  max time  |%varavg| %total
---------------------------------------------------------------
Pair    | 19.341     | 19.341     | 19.341     |   0.0 |  3.40
Bond    | 60.351     | 60.351     | 60.351     |   0.0 | 10.60
Neigh   | 86.99      | 86.99      | 86.99      |   0.0 | 15.28
Comm    | 202.79     | 202.79     | 202.79     |   0.0 | 35.63
Output  | 1.0426     | 1.0426     | 1.0426     |   0.0 |  0.18
Modify  | 185.53     | 185.53     | 185.53     |   0.0 | 32.60
Other   |            | 13.13      |            |       |  2.31

Nlocal:        200.000 ave         200 max         200 min
Histogram: 1 0 0 0 0 0 0 0 0 0
Nghost:        0.00000 ave           0 max           0 min
Histogram: 1 0 0 0 0 0 0 0 0 0
Neighs:        69.0000 ave          69 max          69 min
Histogram: 1 0 0 0 0 0 0 0 0 0

Total # of neighbors = 69
Ave neighs/atom = 0.345
Ave special neighs/atom = 5.9400000
Neighbor list builds = 4317
Dangerous builds = 0
write_restart restart.equil
System init for write_restart ...
WARNING: Communication cutoff 1.4200000000000002 is shorter than a bond length based estimate of 1.8. This may lead to errors. (../comm.cpp:667)
#--------------End of Input file ------------------
Total wall time: 0:09:29
