LAMMPS (29 Oct 2020)
###################### polyelectrolyte complexation ######################
clear

#Initialization
#------------------------------------
units				lj
dimension			3
atom_style			full
boundary			p p p

#Atom Definition
#-------------------------------------
read_data			data.complexation
Reading data file ...
  orthogonal box = (-120.00000 -120.00000 -120.00000) to (120.00000 120.00000 120.00000)
  1 by 1 by 1 MPI processor grid
  reading atoms ...
  200 atoms
  scanning bonds ...
  1 = max bonds/atom
  reading bonds ...
  199 bonds
Finding 1-2 1-3 1-4 neighbors ...
  special bond factors lj:    0.0      0.0      0.0     
  special bond factors coul:  0.0      0.0      0.0     
     2 = max # of 1-2 neighbors
     2 = max # of 1-3 neighbors
     4 = max # of 1-4 neighbors
     6 = max # of special neighbors
  special bonds CPU = 0.000 seconds
  read_data CPU = 0.003 seconds

#Force definition
#----------------------------------------------
#Bond definition
bond_style			harmonic
bond_coeff			1 5000 1
#Pair definition
special_bonds	lj 0 1 1
Finding 1-2 1-3 1-4 neighbors ...
  special bond factors lj:    0.0      1.0      1.0     
  special bond factors coul:  0.0      0.0      0.0     
     2 = max # of 1-2 neighbors
     2 = max # of 1-3 neighbors
     4 = max # of 1-4 neighbors
     6 = max # of special neighbors
  special bonds CPU = 0.000 seconds
pair_style		 lj/cut 1.12
pair_modify 		 shift yes
pair_coeff	1 1 1 1 1.12

#Timestep etc
#--------------------------------------------
timestep		1e-05
run_style		verlet
velocity		all	create	1	11

#Fix
#---------------------------------------
group polymers type 1
200 atoms in group polymers
fix 1 all nve
fix 2 all langevin 1	1	10	11
fix 3 polymers recenter INIT INIT INIT units box

#Dump
#------------------------------------------------
compute  1 all gyration
variable  myRg2 equal c_1
variable  i equal step
fix  mythermofile all print 5000 "$i ${myRg2}" file radius_of_gyration.dat screen no

thermo_style		 custom step temp press pe evdwl ecoul ebond ke etotal enthalpy
thermo 	5000
dump	3 all custom 5000 dump.lammpstrj id mol type xu yu zu
run		20000000
Neighbor list info ...
  update every 1 steps, delay 10 steps, check yes
  max neighbors/atom: 2000, page size: 100000
  master list distance cutoff = 1.42
  ghost atom cutoff = 1.42
  binsize = 0.71, bins = 339 339 339
  1 neighbor lists, perpetual/occasional/extra = 1 0 0
  (1) pair lj/cut, perpetual
      attributes: half, newton on
      pair build: half/bin/newton
      stencil: half/bin/3d/newton
      bin: standard
WARNING: Communication cutoff 1.4200000000000002 is shorter than a bond length based estimate of 1.8. This may lead to errors. (../comm.cpp:667)
Per MPI rank memory allocation (min/avg/max) = 165.7 | 165.7 | 165.7 Mbytes
Step Temp Press PotEng E_vdwl E_coul E_bond KinEng TotEng Enthalpy 
       0            1 1.4395255e-05            0            0            0            0       1.4925       1.4925       2.4875 
    5000   0.82928379 -0.0002155544   0.25972419            0            0   0.25972419    1.2377061    1.4974302    -13.40169 
   10000   0.43239638 -0.00053755703   0.84954134            0            0   0.84954134    0.6453516    1.4948929   -35.661049 
   15000   0.69251227 -0.00029360564   0.47267414            0            0   0.47267414    1.0335746    1.5062487   -18.787773 
   20000    0.7534559 -0.00018731174   0.37199201            0            0   0.37199201    1.1245329    1.4965249   -11.450463 
   25000   0.55652267 -0.00041638036   0.65951717            0            0   0.65951717   0.83061009    1.4901273   -27.290083 
   30000   0.60467992 -0.00038950946   0.59553297            0            0   0.59553297   0.90248478    1.4980178   -25.424876 
   35000   0.78125854 -0.00016360716   0.34937782            0            0   0.34937782    1.1660284    1.5154062   -9.7931208 
   40000   0.66086558 -0.00025790878   0.54784813            0            0   0.54784813   0.98634188      1.53419   -16.292465 
   45000   0.61079044 -0.00035595886   0.62218105            0            0   0.62218105   0.91160473    1.5337858    -23.07009 
   50000   0.70955934 -0.0002659303   0.48073716            0            0   0.48073716    1.0590173    1.5397545   -16.841348 
   55000   0.73479246 -0.0002376806   0.45483337            0            0   0.45483337    1.0966777    1.5515111   -14.876972 
   60000    0.6686501 -0.00022898415   0.56786492            0            0   0.56786492   0.99796027    1.5658252   -14.261559 
   65000   0.77757005 -0.00019718461   0.39056005            0            0   0.39056005    1.1605233    1.5510833   -12.078317 
   70000    0.7410408 -0.00022212032   0.45330099            0            0   0.45330099    1.1060034    1.5593044   -13.793652 
   75000   0.72344133 -0.00020248923   0.49975275            0            0   0.49975275    1.0797362    1.5794889   -12.416566 
   80000   0.77421168 -0.00014281164   0.42812574            0            0   0.42812574    1.1555109    1.5836367   -8.2875038 
   85000   0.77484364 -0.00021684273   0.41301854            0            0   0.41301854    1.1564541    1.5694727   -13.418697 
   90000   0.74128511 -0.00023528736   0.49088005            0            0   0.49088005     1.106368    1.5972481   -14.665814 
   95000   0.78755851 -0.00015169502    0.4189939            0            0    0.4189939    1.1754311     1.594425   -8.8907351 
  100000   0.84503355 -0.0001027305   0.33074952            0            0   0.33074952    1.2612126    1.5919621   -5.5087701 
  105000   0.83058042 -0.00017413316   0.36742011            0            0   0.36742011    1.2396413    1.6070614   -10.429023 
  110000   0.80497296 -0.00013384789    0.4108135            0            0    0.4108135    1.2014221    1.6122356   -7.6393303 
  115000   0.84016458 -5.8319533e-05   0.35692323            0            0   0.35692323    1.2539456    1.6108689   -2.4201772 
  120000   0.84004584 -0.00013155824   0.34954005            0            0   0.34954005    1.2537684    1.6033085   -7.4899974 
  125000   0.82834647 -0.00019048415   0.36423262            0            0   0.36423262    1.2363071    1.6005397   -11.565725 
  130000   0.82896027 -5.433445e-05   0.37193303            0            0   0.37193303    1.2372232    1.6091562   -2.1464409 
  135000   0.86545436 -3.289458e-05   0.32818306 9.2009788e-05            0   0.32809105    1.2916906    1.6198737  -0.65379969 
  140000   0.80346278 -0.00013255112   0.41089447 0.00033439591            0   0.41056007    1.1991682    1.6100627   -7.5518709 
  145000   0.82002427 -8.4361727e-05   0.39547589 0.00019304142            0   0.39528285    1.2238862    1.6193621   -4.2117205 
  150000   0.85521176 -4.0467964e-05   0.34662269 2.1729089e-05            0   0.34660096    1.2764036    1.6230263   -1.1741194 
  155000    0.8576244 -7.2328392e-05   0.35310636            0            0   0.35310636    1.2800044    1.6331108   -3.3662277 
  160000   0.88045786 -4.1570574e-05   0.33207351            0            0   0.33207351    1.3140834    1.6461569   -1.2272012 
  165000   0.84837754 -3.1356265e-05   0.38473713            0            0   0.38473713    1.2662035    1.6509406  -0.51640442 
  170000   0.87032824 -7.1070883e-05   0.35898367            0            0   0.35898367    1.2989649    1.6579486   -3.2544708 
  175000   0.87963534 -2.5272802e-05   0.33736135            0            0   0.33736135    1.3128557    1.6502171 -0.096639011 
  180000   0.86771865 -1.957786e-05   0.34460715            0            0   0.34460715    1.2950701    1.6396772   0.28645558 
  185000   0.87263586 -1.7488977e-05   0.35520578            0            0   0.35520578     1.302409    1.6576148    0.4487767 
  190000   0.88188155 -7.8291178e-05   0.34666981            0            0   0.34666981    1.3162082     1.662878   -3.7486082 
  195000   0.91961342 -6.2800037e-05   0.30331718            0            0   0.30331718     1.372523    1.6758402   -2.6648983 
  200000   0.92105358 -3.8546705e-05   0.30477528            0            0   0.30477528    1.3746725    1.6794478  -0.98490048 
  205000   0.92124668 -9.7909096e-06   0.31510187            0            0   0.31510187    1.3749607    1.6900625    1.0133149 
  210000   0.90865847 -3.4215569e-05   0.32694592            0            0   0.32694592    1.3561728    1.6831187  -0.68186143 
  215000   0.91813415 -8.9398016e-05   0.31445883            0            0   0.31445883    1.3703152    1.6847741   -4.4944168 
  220000   0.94481009 1.3055687e-05   0.28156905 2.8298349e-05            0   0.28154075    1.4101291    1.6916981    2.5941072 
  225000   0.91542981 3.3771088e-05   0.33711844 0.00032945425            0   0.33678899     1.366279    1.7033974     4.037655 
  230000   0.88452911 -8.6998518e-05   0.37150768 0.00061382338            0   0.37089385    1.3201597    1.6916674   -4.3216702 
  235000   0.92221313 -6.0517792e-05   0.32448965 0.00029608923            0   0.32419356    1.3764031    1.7008927    -2.482097 
  240000   0.95583409 5.5905211e-05   0.27470666 3.1610321e-05            0   0.27467505    1.4265824     1.701289    5.5654572 
  245000   0.92357617 -7.3289127e-06   0.31106969            0            0   0.31106969    1.3784374    1.6895071    1.1829327 
  250000   0.88084212 -6.5837563e-05   0.35729445            0            0   0.35729445    1.3146569    1.6719513    -2.878741 
  255000   0.91658368 1.8188259e-06   0.31192057            0            0   0.31192057    1.3680011    1.6799217     1.805639 
  260000   0.91074968 5.955301e-06   0.32322648            0            0   0.32322648    1.3592939    1.6825204    2.0941508 
  265000   0.89147569 -6.7331235e-05   0.34970111            0            0   0.34970111    1.3305275    1.6802286   -2.9737064 
  270000   0.89284748 -3.5655203e-05   0.33707758            0            0   0.33707758    1.3325749    1.6696524  -0.79483519 
  275000   0.88138704 5.7784633e-05   0.34020771            0            0   0.34020771    1.3154702    1.6556779    5.6497517 
  280000     0.901034 -4.7139068e-05   0.31805622            0            0   0.31805622    1.3447932    1.6628495   -1.5954029 
  285000   0.88263771 -6.6365154e-05    0.3524304            0            0    0.3524304    1.3173368    1.6697672   -2.9173923 
  290000   0.92349071 2.4385435e-05   0.28714574            0            0   0.28714574    1.3783099    1.6654556    3.3509769 
  295000   0.87037323 -4.7827746e-05   0.35064777            0            0   0.35064777     1.299032    1.6496798    -1.656174 
  300000   0.89429336 -1.9653555e-06   0.31133442            0            0   0.31133442    1.3347328    1.6460673    1.5102219 
  305000   0.87931776 -1.1594017e-06   0.34452958            0            0   0.34452958    1.3123818    1.6569113    1.5767735 
  310000   0.88535617 -1.3883955e-05    0.3482676            0            0    0.3482676    1.3213941    1.6696617   0.71000268 
  315000   0.88201883 -2.1563014e-05   0.35534933            0            0   0.35534933    1.3164131    1.6717624    0.1813269 
  320000   0.86493716 9.6547823e-06   0.36287835            0            0   0.36287835    1.2909187    1.6537971    2.3211356 
  325000   0.88692131 -1.9087982e-05   0.33437212            0            0   0.33437212    1.3237301    1.6581022   0.33874083 
  330000   0.86290916 -5.7511852e-05   0.37558422            0            0   0.37558422    1.2878919    1.6634761   -2.3117431 
  335000   0.88153651 2.6949117e-05   0.36415171            0            0   0.36415171    1.3156932     1.679845    3.5425679 
  340000   0.87628912 -1.9373857e-05   0.37753111            0            0   0.37753111    1.3078615    1.6853926   0.34627163 
  345000   0.88628896 -5.694594e-05   0.38363538            0            0   0.38363538    1.3227863    1.7064217   -2.2296817 
  350000   0.89828878 1.0890569e-05   0.36257016            0            0   0.36257016     1.340696    1.7032662    2.4560223 
  355000   0.89697243 6.3512793e-06   0.36587207            0            0   0.36587207    1.3387314    1.7046034    2.1436039 
  360000   0.86194202 1.1410867e-05   0.40598041            0            0   0.40598041    1.2864485    1.6924289     2.481148 
  365000   0.84088965 -6.2887189e-05   0.44307582            0            0   0.44307582    1.2550278    1.6981036   -2.6486589 
  370000   0.87567385 1.852174e-05   0.39518719            0            0   0.39518719    1.3069432    1.7021304    2.9823531 
  375000     0.882316 2.4837655e-05   0.37701404            0            0   0.37701404    1.3168566    1.6938707    3.4106494 
  380000   0.84874133 -9.532605e-05   0.43020177            0            0   0.43020177    1.2667464    1.6969482   -4.8919884 
  385000      0.90078 4.8768302e-05   0.37048898            0            0   0.37048898    1.3444142    1.7149031    5.0857681 
  390000   0.93032406 -2.5655574e-05   0.35170319            0            0   0.35170319    1.3885087    1.7402119 -0.033101412 
  395000   0.92865762 -1.1140908e-05   0.34958999            0            0   0.34958999    1.3860215    1.7356115   0.96555194 
  400000   0.91860008 -2.9031901e-05   0.35217616            0            0   0.35217616    1.3710106    1.7231868  -0.28349824 
  405000    0.9332061 -4.1416646e-05   0.32905187            0            0   0.32905187    1.3928101     1.721862   -1.1408566 
  410000   0.91006665 8.9145345e-05   0.35984426            0            0   0.35984426    1.3582745    1.7181187     7.879845 
  415000   0.88663948 -0.00012248204   0.38687222            0            0   0.38687222    1.3233094    1.7101816   -6.7557772 
  420000    0.8974676 -2.2420492e-06   0.35757002            0            0   0.35757002    1.3394704    1.6970404      1.54207 
  425000     0.884159 3.225305e-05   0.38547623            0            0   0.38547623    1.3196073    1.7050835    3.9344144 
  430000   0.89733091 -2.7575041e-05   0.36810946            0            0   0.36810946    1.3392664    1.7073758  -0.19861098 
  435000   0.90846271 -4.3452093e-05   0.34788104            0            0   0.34788104    1.3558806    1.7037616    -1.299647 
  440000    0.8850441 3.3701825e-05   0.38866252            0            0   0.38866252    1.3209283    1.7095908     4.039061 
  445000    0.9040772 4.092356e-06   0.35325728            0            0   0.35325728    1.3493352    1.7025925    1.9854561 
  450000   0.87669836 -9.5033422e-05   0.39118101            0            0   0.39118101    1.3084723    1.6996533   -4.8690568 
  455000   0.89872329 5.1706391e-05   0.37622004            0            0   0.37622004    1.3413445    1.7175645    5.2915103 
  460000   0.90319176 7.2224216e-06   0.37485922 2.8022389e-05            0    0.3748312    1.3480137    1.7228729    2.2220867 
  465000   0.89856133 -3.4478119e-05   0.38066774 0.00066273633            0     0.380005    1.3411028    1.7217705   -0.6613571 
  470000   0.91547642 2.0661741e-05   0.34625574 0.0021328862            0   0.34412285    1.3663486    1.7126043    3.1407438 
  475000   0.87040722 -1.2466555e-05   0.40292386 0.00075064232            0   0.40217322    1.2990828    1.7020066   0.84031835 
  480000   0.87491723 -1.6105266e-05   0.39325974 5.1776811e-06            0   0.39325456     1.305814    1.6990737   0.58587775 
  485000   0.86524264 -2.0284365e-05   0.40845761            0            0   0.40845761    1.2913746    1.6998323   0.29777694 
  490000   0.85218865 -2.5208203e-05   0.43184721            0            0   0.43184721    1.2718916    1.7037388 -0.038652219 
  495000   0.90979497 2.0296251e-05   0.34617269            0            0   0.34617269     1.357869    1.7040417    3.1069185 
  500000   0.88053675 -4.0169346e-05   0.39118804            0            0   0.39118804    1.3142011    1.7053891   -1.0711161 
  505000   0.91086809 3.4058545e-06   0.35395898            0            0   0.35395898    1.3594706    1.7134296    1.9488423 
  510000   0.88416793 1.5543932e-05   0.40905322            0            0   0.40905322    1.3196206    1.7286739    2.8030704 
  515000   0.90143594 -1.7028335e-05    0.3947072            0            0    0.3947072    1.3453931    1.7401003   0.56310185 
  520000   0.88725209 -4.4958552e-05   0.42577981            0            0   0.42577981    1.3242237    1.7500036   -1.3575316 
  525000   0.90068187 3.8735015e-05   0.40831769            0            0   0.40831769    1.3442677    1.7525854    4.4299496 
  530000   0.91060539 -3.7284638e-05   0.39927126 4.0554739e-05            0    0.3992307    1.3590785    1.7583498  -0.81876439 
  535000   0.92490803 9.9002963e-06   0.39375038 0.00020472076            0   0.39354566    1.3804252    1.7741756    2.4584841 
  540000   0.90167293 -1.7690658e-05     0.426574 8.6399293e-05            0    0.4264876    1.3457468    1.7723208   0.54954253 
  545000   0.90461497 -3.7934426e-06    0.4136896 3.5303373e-06            0   0.41368607    1.3501378    1.7638274    1.5016247 
  550000    0.8949345 -3.8476281e-05   0.42635148            0            0   0.42635148    1.3356897    1.7620412  -0.89743934 
  555000   0.95233266 -2.3164587e-05   0.35718884            0            0   0.35718884    1.4213565    1.7785453   0.17740908 
  560000   0.94238601 1.7153131e-05   0.38009508            0            0   0.38009508    1.4065111    1.7866062    2.9722306 
  565000   0.91641565 1.8175363e-05   0.40804999 0.00059050992            0   0.40745948    1.3677504    1.7758003    3.0320814 
  570000   0.91001933 -2.4498799e-05   0.41699833 0.0016595818            0   0.41533875    1.3582038    1.7752022  0.081845194 
  575000   0.88976302 3.3103922e-06   0.46252962 0.00069330218            0   0.46183632    1.3279713    1.7905009    2.0193152 
  580000   0.93143801 6.3797361e-06   0.41271161            0            0   0.41271161    1.3901712    1.8028828    2.2438502 
  585000   0.93680004 -5.2443675e-05   0.40666016            0            0   0.40666016    1.3981741    1.8048342   -1.8200726 
  590000   0.91358287 3.941163e-05   0.42746257            0            0   0.42746257    1.3635224     1.790985    4.5151169 
  595000    0.9523397 -2.821561e-05   0.38297758            0            0   0.38297758     1.421367    1.8043446   -0.1459184 
  600000   0.92659727 -3.0690492e-05   0.42744666            0            0   0.42744666    1.3829464    1.8103931  -0.31093373 
  605000   0.94925903 7.5474965e-05   0.39940457            0            0   0.39940457    1.4167691    1.8161737    7.0330032 
  610000   0.93566801 -4.2310588e-05    0.4201646            0            0    0.4201646    1.3964845    1.8166491   -1.1078587 
  615000   0.95664886 -5.0918051e-05   0.38683703            0            0   0.38683703    1.4277984    1.8146355   -1.7048202 
  620000   0.93170356 5.7860761e-05    0.4248217            0            0    0.4248217    1.3905676    1.8153893     5.814725 
  625000   0.92513037 -4.6172233e-05   0.43205422            0            0   0.43205422    1.3807571    1.8128113   -1.3786135 
  630000   0.92468971 2.1358745e-05    0.4236591            0            0    0.4236591    1.3800994    1.8037585     3.280075 
  635000   0.92099288 5.6329996e-05   0.43015762 8.357341e-06            0   0.43014927    1.3745819    1.8047395    5.6982688 
  640000    0.9487247 -5.3110562e-05   0.39762778 0.00043046775            0   0.39719732    1.4159716    1.8135994   -1.8574026 
  645000   0.98131181 -7.9078046e-06   0.35620267 0.00043639413            0   0.35576628    1.4646079    1.8208105    1.2742231 
  650000   0.94488179 -4.4189206e-07   0.42433615 9.0413485e-05            0   0.42424574    1.4102361    1.8345722    1.8040286 
  655000   0.93474985 -7.6631162e-06   0.44116459 5.3973404e-05            0   0.44111061    1.3951141    1.8362787    1.3066041 
  660000   0.96246264 -6.1542463e-05   0.42342014 0.0012272105            0   0.42219293    1.4364755    1.8598956   -2.3939194 
  665000   0.94032859 -3.2835725e-06   0.44008646 0.0031308994            0   0.43695556    1.4034404    1.8435269    1.6165663 
  670000     0.938356 -6.8934607e-06   0.43705561  0.001926775            0   0.43512883    1.4004963    1.8375519    1.3610759 
  675000   0.92781898 -4.9530908e-05   0.46117466 0.00015236364            0    0.4610223    1.3847698    1.8459445   -1.5776319 
  680000   0.90814268 8.656016e-05   0.47988355            0            0   0.47988355    1.3554029    1.8352865    7.8183248 
  685000   0.89497309 -7.1304952e-05   0.51005315            0            0   0.51005315    1.3357473    1.8458005   -3.0827978 
  690000   0.92612143 3.7433244e-05   0.45665432            0            0   0.45665432    1.3822362    1.8388906    4.4262764 
  695000   0.98853517 1.7247615e-05   0.37914969 0.00023502479            0   0.37891467    1.4753887    1.8545384    3.0466936 
  700000   0.95902607 -4.5639299e-05   0.44583846 0.00063207459            0   0.44520639    1.4313464    1.8771849   -1.2774035 
  705000   0.95801815 -1.1081723e-05   0.43808767 0.00046236951            0    0.4376253    1.4298421    1.8679298    1.1019611 
  710000   0.97580142 3.5247683e-05   0.40431126 0.0014044035            0   0.40290685    1.4563836    1.8606949    4.2970147 
  715000   0.96596966 -1.580355e-05   0.40298264 0.0026608193            0   0.40032182    1.4417097    1.8446924   0.75235101 
  720000   0.92948499 -5.5235966e-05    0.4466948  0.001055556            0   0.44563924    1.3872564    1.8339512   -1.9839588 
  725000    0.9557374 4.7598301e-05   0.41814892 1.3531372e-05            0   0.41813538    1.4264381     1.844587    5.1345816 
  730000   0.93136226 -5.5186481e-05   0.46034937            0            0   0.46034937    1.3900582    1.8504075   -1.9640821 
  735000   0.96807902 3.9875744e-05   0.42527105            0            0   0.42527105    1.4448579     1.870129    4.6263404 
  740000   0.95117662 -4.943437e-05   0.44547061 0.00099059782            0   0.44448001    1.4196311    1.8651017   -1.5518019 
  745000   0.96005015 5.3848903e-05   0.43967453 0.0037792262            0    0.4358953    1.4328748    1.8725494    5.5945856 
  750000   0.96651569 -3.3799426e-05   0.42292573 0.00088687467            0   0.42203886    1.4425247    1.8654504  -0.47076591 
  755000   0.95990969 3.8599934e-05   0.43938321            0            0   0.43938321    1.4326652    1.8720484    4.5400759 
  760000   0.95584116 6.5952032e-06   0.44214382 0.0004967519            0   0.44164706    1.4265929    1.8687367    2.3245972 
  765000   0.98514192 5.9801408e-05   0.41868377 0.0051363712            0    0.4135474    1.4703243    1.8890081    6.0224814 
  770000   0.96654365 -9.1675858e-07   0.45549122 0.0027541119            0   0.45273711    1.4425664    1.8980576    1.8346913 
  775000   0.96982798 -2.9111918e-05   0.45606616 3.0382721e-05            0   0.45603578    1.4474683    1.9035344  -0.10868138 
  780000   0.95043654 7.9738637e-06   0.47919789 9.0919034e-05            0   0.47910698    1.4185265    1.8977244    2.4488779 
  785000   0.95993184 -3.1308868e-06   0.47440053 0.00016538128            0   0.47423515    1.4326983    1.9070988    1.6906919 
  790000   0.95944335 -2.8282073e-05   0.45198363 0.00020881443            0   0.45177482    1.4319692    1.8839528  -0.07090406 
  795000   0.95726432 -1.5258121e-05   0.47071712 0.00024601773            0    0.4704711     1.428717    1.8994341   0.84479279 
  800000   0.99318285 1.6745068e-05   0.40455598 0.00012667236            0   0.40442931    1.4823254    1.8868814    3.0443005 
  805000   0.96389538 -7.0988067e-05   0.43626035 1.1967158e-05            0   0.43624839    1.4386138    1.8748742    -3.031821 
  810000   0.98123715 3.7409941e-05   0.40946232            0            0   0.40946232    1.4644964    1.8739588    4.4597339 
  815000   0.98130391 -7.2454849e-05   0.39709724            0            0   0.39709724    1.4645961    1.8616933   -3.1463859 
  820000   0.98572965 2.6827238e-05   0.39382497 0.00016047987            0   0.39366449    1.4712015    1.8650265    3.7193251 
  825000   0.95349555 5.560075e-06   0.45774324 0.00079437487            0   0.45694886    1.4230921    1.8808353    2.2651477 
  830000   0.96929422 -8.6444259e-06   0.42460818 0.0023715545            0   0.42223662    1.4466716    1.8712798    1.2737771 
  835000   0.94506739 1.9812106e-05    0.4697141 0.0061810411            0   0.46353306    1.4105131    1.8802272      3.24964 
  840000   0.96405787 -5.4807786e-05   0.45496033 0.0018845042            0   0.45307583    1.4388564    1.8938167   -1.8944974 
  845000   0.94765834 2.8657847e-06   0.48094581            0            0   0.48094581    1.4143801    1.8953259    2.0934089 
  850000   0.92776059 -1.0525461e-05   0.51197744  0.000436883            0   0.51154056    1.3846827    1.8966601    1.1691402 
  855000   0.90600291 -6.3633322e-06   0.53192449 0.0029768125            0   0.52894767    1.3522093    1.8841338    1.4443003 
  860000   0.98837991 5.0900891e-06    0.4358286 0.0044652619            0   0.43136333     1.475157    1.9109856    2.2628126 
  865000   0.97132777 -5.6044289e-06   0.46815271   0.00143153            0   0.46672118    1.4497067    1.9178594    1.5304813 
  870000   0.98437469 -5.6887999e-05   0.43650259            0            0   0.43650259    1.4691792    1.9056818   -2.0264167 
  875000    0.9869808 5.932675e-05   0.43775679            0            0   0.43775679    1.4730688    1.9108256    6.0114906 
  880000    1.0035356 -5.7764086e-05   0.41966676            0            0   0.41966676    1.4977769    1.9174437     -2.07521 
  885000   0.94186352 -1.9664912e-05   0.53558825            0            0   0.53558825    1.4057313    1.9413195   0.58208086 
  890000   0.99396751 9.8056684e-06   0.43524412            0            0   0.43524412    1.4834965    1.9187406    2.5965084 
  895000   0.97250217 -6.3626278e-06   0.46621558 0.00048088047            0    0.4657347    1.4514595    1.9176751    1.4778902 
  900000   0.98537716 -9.5463981e-05   0.46563675 0.0015711871            0   0.46406556    1.4706754    1.9363122   -4.6621582 
  905000   0.96922598 8.6873551e-05   0.46747153 0.00088170576            0   0.46658983    1.4465698    1.9140413    7.9187412 
  910000   0.95540894 -8.1968411e-05   0.48964623 0.00086800565            0   0.48877822    1.4259478    1.9155941   -3.7500625 
  915000   0.97235858 4.9091468e-05    0.4572965 0.0027624998            0     0.454534    1.4512452    1.9085417     5.301744 
  920000   0.95520214 -2.6625276e-05   0.47238806  0.001386301            0   0.47100176    1.4256392    1.8980272  0.057688179 
  925000   0.97955773 -2.4617796e-05   0.44259626 0.0012209889            0   0.44137528    1.4619899    1.9045862   0.20300411 
  930000    1.0001966 2.0256999e-05   0.44872546  0.012197704            0   0.43652776    1.4927935    1.9415189    3.3416827 
  935000   0.96278787 -3.8483115e-05   0.50922926  0.010622196            0   0.49860707    1.4369609    1.9461902  -0.71376274 
  940000    1.0061344 2.0360228e-05   0.43460027 0.00058298538            0   0.43401729    1.5016557    1.9362559    3.3435549 
  945000   0.98759502 -4.5564117e-05   0.45863204            0            0   0.45863204    1.4739856    1.9326176   -1.2167741 
  950000   0.97892457 1.6736558e-05   0.46581337            0            0   0.46581337    1.4610449    1.9268583    3.0836892 
  955000    1.0289501 -3.3646591e-05   0.42490098 0.00011900273            0   0.42478198    1.5357081     1.960609  -0.36504334 
  960000    1.0130571 -1.5151106e-07   0.44696524 0.00078182888            0   0.44618341    1.5119877     1.958953    1.9484805 
  965000    1.0468336 -2.5331312e-05   0.40274546 0.0040019326            0   0.39874353    1.5623992    1.9651446   0.21424434 
  970000    1.0376489 7.8505349e-07   0.43358066 0.0079628782            0   0.42561778     1.548691    1.9822716    2.0365345 
  975000    1.0222026 -3.0875201e-05   0.45862161 0.0050482911            0   0.45357332    1.5256373    1.9842589  -0.14983494 
  980000    1.0544817 -1.0917129e-05   0.41806836 0.0019891651            0   0.41607919    1.5738139    1.9918822    1.2372903 
  985000    1.0539566 1.0916824e-05    0.4189265 0.00019113386            0   0.41873536    1.5730302    1.9919567    2.7465277 
  990000    1.0095924 3.2804055e-05   0.48421695 0.0016243007            0   0.48259265    1.5068166    1.9910336    4.2584499 
  995000   0.97459706 -2.0083706e-05   0.53678938 0.0025729529            0   0.53421643    1.4545861    1.9913755   0.60318974 
 1000000    1.0275937 -4.6855963e-05   0.46591889 0.0062857839            0   0.45963311    1.5336836    1.9996025   -1.2390816 
 1005000     1.029523 4.7184365e-05    0.4661906 0.0070241465            0   0.45916646    1.5365631    2.0027537    5.2641371 
 1010000     1.013202 -4.2825517e-06   0.48138163 0.0037799154            0   0.47760172    1.5122039    1.9935856    1.6975756 
 1015000    1.0100741 -5.9060694e-06   0.47260816 0.0070065714            0   0.46560159    1.5075356    1.9801438    1.5719162 
 1020000   0.99285554 1.5651427e-05   0.49036285 0.0054970999            0   0.48486575    1.4818369    1.9721997    3.0540263 
 1025000    1.0295255 6.2044448e-05   0.41678528  0.008677071            0    0.4081082    1.5365667     1.953352    6.2418643 
 1030000   0.99880766 -1.8793053e-05   0.48666371 0.0068836707            0   0.47978003    1.4907204    1.9773841   0.67840831 
 1035000    1.0352755  7.58582e-05   0.42863719 0.00023917361            0   0.42839802    1.5451488    1.9737859    7.2171047 
 1040000    1.0161834 -2.3394267e-05   0.45472742 2.1895326e-05            0   0.45470552    1.5166537    1.9713811   0.35436939 
 1045000   0.98448173 -6.9876263e-05   0.51807926 0.00029526155            0     0.517784     1.469339    1.9874182    -2.842429 
 1050000    1.0016498 -8.0692215e-05   0.48438607 0.00055743676            0   0.48382863    1.4949623    1.9793483   -3.5980976 
 1055000   0.99576833 3.7731048e-05    0.4867386 0.0014565199            0   0.48528208    1.4861842    1.9729228    4.5808929 
 1060000    1.0045356 -4.8096285e-07   0.46883994 0.0037379904            0   0.46510195    1.4992694    1.9681094    1.9348652 
 1065000   0.98891272 -7.208059e-05   0.48299009  0.005774111            0   0.47721598    1.4759522    1.9589423    -3.023268 
 1070000   0.99734254 5.9042389e-05   0.46890895 0.0077301848            0   0.46117876    1.4885337    1.9574427    6.0384526 
 1075000   0.99197112 -2.7336844e-05   0.48691489  0.003326531            0   0.48358836    1.4805169    1.9674318  0.077909146 
 1080000    1.0064402 -6.159501e-05   0.46044082 0.00080253116            0   0.45963829    1.5021119    1.9625528   -2.2948944 
 1085000   0.99035128 -8.122033e-06   0.49077259 0.00016023704            0   0.49061235    1.4780993    1.9688719     1.407477 
 1090000    1.0052603 1.5204586e-05    0.4701592            0            0    0.4701592     1.500351    1.9705102    3.0214512 
 1095000   0.98033263 -8.0118395e-05   0.50354127            0            0   0.50354127    1.4631464    1.9666877   -3.5710957 
 1100000   0.98598987 2.9168964e-05    0.5013721 5.2164315e-06            0   0.50136689    1.4715899     1.972962    3.9891208 
 1105000   0.99066897 3.372475e-06   0.49756783 0.00063485399            0   0.49693297    1.4785734    1.9761413    2.2092467 
 1110000   0.99283632 -5.4388589e-06   0.48952879 0.0023239078            0   0.48720488    1.4818082     1.971337    1.5954031 
 1115000    1.0276589 -5.547392e-06   0.42613259 0.0021892517            0   0.42394334     1.533781    1.9599136    1.5764778 
 1120000   0.96069237 2.7968442e-05   0.49492883 0.00082289342            0   0.49410593    1.4338334    1.9287622    3.8619409 
 1125000    0.9793907 3.7811649e-07   0.45329713 0.00019987695            0   0.45309725    1.4617406    1.9150377    1.9411732 
 1130000   0.94293453 -1.0914102e-05   0.50411519 0.0012189437            0   0.50289625    1.4073298     1.911445    1.1570622 
 1135000   0.97824694 -2.9309013e-07   0.45492499 0.0035410674            0   0.45138393    1.4600336    1.9149586    1.8947002 
 1140000   0.97437278 -5.7387055e-05   0.46458668 0.0056754198            0   0.45891126    1.4542514    1.9188381   -2.0477552 
 1145000   0.97783949  7.92688e-05   0.46776244 0.00061185295            0   0.46715058    1.4594254    1.9271879    7.4062473 
 1150000   0.97170495 -3.844363e-05   0.50026512            0            0   0.50026512    1.4502696    1.9505348  -0.70668899 
 1155000   0.99177586 2.8099076e-05   0.46332837            0            0   0.46332837    1.4802255    1.9435538     3.885762 
 1160000   0.98388091 -4.467297e-05   0.45517886 0.00028469747            0   0.45489416    1.4684423    1.9236211   -1.1641746 
 1165000   0.97846871 3.4492176e-05   0.46813842 0.00087273323            0   0.46726568    1.4603645     1.928503    4.3126022 
 1170000   0.94121025 -6.7562219e-05   0.51723023 0.00068097549            0   0.51654926    1.4047563    1.9219865   -2.7479141 
 1175000   0.93836568 4.4624208e-06   0.51525925 0.0023376543            0    0.5129216    1.4005108      1.91577    2.2242125 
 1180000   0.99722691 -3.0224927e-05   0.44415326 0.0046448034            0   0.43950846    1.4883612    1.9325144  -0.15663253 
 1185000   0.98197089 2.1962436e-06   0.48144453 0.0054121463            0   0.47603238    1.4655916    1.9470361    2.0988404 
 1190000    1.0031097 -2.8406336e-05   0.44949582 0.0038398232            0     0.445656    1.4971412     1.946637 -0.016808924 
 1195000   0.95110338 -2.9178441e-05   0.53038751  0.001503194            0   0.52888432    1.4195218    1.9499093 -0.066904518 
 1200000   0.96060048 -6.9473804e-05    0.4895203 0.0011962446            0   0.48832406    1.4336962    1.9232165   -2.8788128 
 1205000   0.96572109 1.8084385e-05   0.49168949 0.0012881395            0   0.49040135    1.4413387    1.9330282    3.1830209 
 1210000   0.95333572 -3.010698e-05   0.48485431 0.00089868467            0   0.48395562    1.4228536    1.9077079  -0.17328659 
 1215000   0.93673587 -2.9538155e-06   0.48262332 0.00073998588            0   0.48188333    1.3980783    1.8807016    1.6765339 
 1220000   0.94733304 -2.4220767e-06   0.48206276 0.0024765173            0   0.47958624    1.4138946    1.8959573    1.7285434 
 1225000   0.98008658 6.4803808e-05   0.45063879 0.0096311439            0   0.44100765    1.4627792     1.913418    6.3926572 
 1230000   0.97576009 -2.2524668e-05   0.48089063 0.0082502699            0   0.47264036    1.4563219    1.9372126   0.38030749 
 1235000   0.92953894 2.4978432e-05   0.52161197 0.0022855599            0   0.51932641    1.3873369    1.9089488    3.6354581 
 1240000   0.92837839 3.0535342e-05   0.51503946  0.005651861            0    0.5093876    1.3856047    1.9006442     4.011247 
 1245000   0.94768997 -4.0191205e-05   0.47413063 0.0036255398            0   0.47050509    1.4144273    1.8885579  -0.88945815 
 1250000   0.93734414 -1.0410603e-05   0.48048926 0.0029861975            0   0.47750306    1.3989861    1.8794754    1.1598945 
 1255000   0.92829111 -8.5405383e-06   0.48087805 0.0084876817            0   0.47239037    1.3854745    1.8663525    1.2760305 
 1260000   0.97382036 1.893559e-05   0.42644534 0.0021582296            0   0.42428711    1.4534269    1.8798722    3.1887002 
 1265000   0.94560981 5.7470038e-06   0.46498623  0.001231898            0   0.46375433    1.4113226    1.8763089    2.2735418 
 1270000   0.92258091 -3.9928231e-05   0.49326484 0.00043357107            0   0.49283127     1.376952    1.8702169  -0.88962249 
 1275000   0.96653307 4.722534e-06   0.41836412 0.0001017409            0   0.41826238    1.4425506    1.8609147    2.1873363 
 1280000   0.95341436 -2.1562739e-05   0.42182303 0.00061059421            0   0.42121243    1.4229709     1.844794   0.35437745 
 1285000   0.92724658 8.0885002e-05   0.44283691 0.0092009191            0   0.43363599    1.3839155    1.8267524    7.4175238 
 1290000    0.9616926 -2.426139e-05   0.40446663  0.019550407            0   0.38491622    1.4353262    1.8397928   0.16284556 
 1295000   0.92298442 -1.1248717e-06   0.45305013 0.0098192538            0   0.44323088    1.3775542    1.8306044    1.7528532 
 1300000   0.93020678 -4.846502e-05   0.44033391 0.00068581018            0    0.4396481    1.3883336    1.8286675   -1.5212346 
 1305000   0.90947475 2.5044472e-05   0.48000282 0.00077242617            0    0.4792304    1.3573911    1.8373939    3.5684678 
 1310000   0.94889938 -2.8142084e-05    0.4284925 0.0028903773            0   0.42560212    1.4162323    1.8447248    -0.100456 
 1315000   0.92361884 -1.6978561e-05   0.46487031 0.0050386545            0   0.45983165    1.3785011    1.8433714   0.66981325 
 1320000   0.92552851 5.1662478e-06   0.46292885 0.0014426646            0   0.46148619    1.3813513    1.8442802    2.2013712 
 1325000   0.91662678 -1.7400009e-05   0.45824775  0.001268751            0     0.456979    1.3680655    1.8263132   0.62362457 
 1330000   0.89764751 2.2514315e-05   0.47797099  0.008447305            0   0.46952369    1.3397389    1.8177099    3.3738994 
 1335000   0.91745592 -3.8831369e-05    0.4370895 0.0047550944            0   0.43233441     1.369303    1.8063925   -0.8776318 
 1340000   0.92685658 2.772894e-05   0.41592778 0.00093319548            0   0.41499458    1.3833334    1.7992612    3.7158856 
 1345000   0.85499272 -1.8114366e-05   0.51819221  0.010907324            0   0.50728489    1.2760766    1.7942688   0.54220386 
 1350000   0.87648498 3.657433e-05   0.48364492 0.0070638119            0   0.47658111    1.3081538    1.7917987    4.3198164 
 1355000   0.86884384 -1.4409338e-05   0.49230814 0.0032596983            0   0.48904844    1.2967494    1.7890576   0.79308413 
 1360000   0.95436525 -2.900321e-06    0.3708732 0.0044519167            0   0.36642128    1.4243901    1.7952633    1.5947932 
 1365000   0.90447023 -2.1407344e-05    0.4438541 0.0011425272            0   0.44271158    1.3499218    1.7937759   0.31410032 
 1370000   0.86675285 1.2781912e-05   0.48832848 0.00082535948            0   0.48750312    1.2936286    1.7819571    2.6654428 
 1375000   0.84076918 -1.2401075e-06   0.53107711 0.0045876354            0   0.52648947     1.254848    1.7859251    1.7002089 
 1380000   0.94616743 -1.3066046e-06   0.38752835 0.0065991426            0   0.38092921    1.4121549    1.7996832    1.7093707 
 1385000   0.91583127 -1.236229e-05   0.46191815 0.0036364477            0    0.4582817    1.3668782    1.8287963   0.97431482 
 1390000   0.95086559 -9.6505147e-07   0.41766501 0.0014134057            0   0.41625161    1.4191669    1.8368319    1.7701275 
 1395000   0.94264431 -3.0492353e-05   0.43474737 0.0020719253            0   0.43267544    1.4068966     1.841644  -0.26598746 
 1400000   0.94141958 2.5004325e-05   0.45846513 0.0044961618            0   0.45396897    1.4050687    1.8635339    3.5918328 
 1405000   0.99191575 2.9953952e-05   0.39520712 0.0040898344            0   0.39111729    1.4804343    1.8756414    3.9460585 
 1410000   0.96367515 -2.0175581e-07    0.4610113 0.00063274701            0   0.46037855    1.4382852    1.8992965    1.8853511 
 1415000   0.97959827 -3.9407062e-05   0.44513291 0.00040133905            0   0.44473157    1.4620504    1.9071833  -0.81663281 
 1420000   0.98943594 2.5397061e-05   0.42499309 0.00037877676            0   0.42461431    1.4767331    1.9017262    3.6571711 
 1425000   0.98358405 -3.3220157e-06   0.43783089 0.00061252966            0   0.43721836    1.4679992    1.9058301    1.6762124 
 1430000   0.96112377 -1.3556076e-05   0.47051159 0.00073555038            0   0.46977604    1.4344772    1.9049888   0.96799285 
 1435000   0.97298136 -3.3165427e-06   0.46863476 0.0043228721            0   0.46431189    1.4521747    1.9208094      1.69157 
 1440000   0.99303783 2.2853263e-05   0.43583044 0.0046423487            0   0.43118809     1.482109    1.9179394    3.4975569 
 1445000    0.9668335 3.7193319e-05   0.47721247 0.0021296937            0   0.47508278     1.442999    1.9202115    4.4910136 
 1450000   0.99713621 -2.680821e-05   0.43321354 0.0034142627            0   0.42979928    1.4882258    1.9214393  0.068455892 
 1455000   0.99880618 -2.9587206e-05   0.43562355 0.0018096499            0    0.4338139    1.4907182    1.9263418  -0.11872593 
 1460000   0.98406267 -1.7189988e-05    0.4417983 0.0009888209            0   0.44080948    1.4687135    1.9105118   0.72233984 
 1465000   0.95755236 -2.1072691e-05   0.50699858 0.0040517697            0   0.50294681    1.4291469    1.9361455   0.47960107 
 1470000    1.0198844 1.3276544e-05   0.41350375 0.0071053475            0    0.4063984    1.5221775    1.9356813     2.853356 
 1475000   0.97715479 -3.1711894e-05    0.5020274 0.0020038847            0   0.50002352    1.4584035    1.9604309  -0.23149522 
 1480000   0.98147243 2.516834e-05   0.49814071   0.00113797            0   0.49700274    1.4648476    1.9629883     3.702624 
 1485000   0.94685249 -1.9062801e-06   0.54868749 0.0008420167            0   0.54784547    1.4131773    1.9618648    1.8301027 
 1490000    1.0357646 6.3972277e-06   0.41299872 0.00080894262            0   0.41218978    1.5458787    1.9588775    2.4010538 
 1495000     1.001165 -3.4856496e-05   0.47664335 0.00050962764            0   0.47613372    1.4942387    1.9708821  -0.43839893 
 1500000   0.99212383 -2.2232254e-06   0.50426074 0.00016062085            0   0.50410012    1.4807448    1.9850056    1.8313362 
 1505000   0.99876941 -5.5869553e-05   0.48239583 0.0028445605            0   0.47955127    1.4906633    1.9730592   -1.8886443 
 1510000   0.96735587 -2.1580116e-05   0.53645445 0.0063522794            0   0.53010217    1.4437786    1.9802331   0.48861549 
 1515000    1.0483785 -1.8513346e-05   0.42897177 0.0056763827            0   0.42329539    1.5647049    1.9936767   0.71403421 
 1520000    1.0568013 9.4870676e-06   0.42501709 0.0030731152            0   0.42194397    1.5772759     2.002293    2.6580391 
 1525000    1.0419705 -5.0845251e-05   0.44628613 0.0063357778            0   0.43995035     1.555141    2.0014271   -1.5129966 
 1530000    1.0592335 2.9015058e-05   0.41675492  0.011159023            0   0.40559589     1.580906     1.997661    4.0031817 
 1535000    1.0482936 1.8130112e-05   0.41995901  0.011304216            0   0.40865479    1.5645782    1.9845372    3.2376905 
 1540000    1.0328638 6.268242e-05   0.44846732 0.0037996955            0   0.44466762    1.5415492    1.9900165    6.3226254 
 1545000    1.0834224 2.1651149e-05   0.37313937 0.0010639039            0   0.37207547    1.6170079    1.9901473    3.4866747 
 1550000    1.0400239 -1.1248181e-06   0.43798137 0.0010321839            0   0.43694919    1.5522356     1.990217    1.9124695 
 1555000    1.0290238 -4.3547361e-05   0.45225013 0.0090305238            0   0.44321961    1.5358181    1.9880682   -1.0219254 
 1560000   0.98341514 4.2465313e-05    0.5157022 0.0068315763            0   0.50887062    1.4677471    1.9834493    4.9186517 
 1565000     1.004289 -3.4598342e-06    0.4775603 0.0087261813            0   0.46883412    1.4989014    1.9764617    1.7373179 
 1570000    1.0213419 -1.2142561e-05   0.46408052 0.0046708573            0   0.45940967    1.5243528    1.9884333    1.1491395 
 1575000    1.0833196 1.4902672e-05   0.39160281   0.01269949            0   0.37890332    1.6168545    2.0084573      3.03853 
 1580000    1.0498153 -2.0878805e-05   0.43171348 0.0079870078            0   0.42372648    1.5668494    1.9985629   0.55541988 
 1585000    1.0219968 2.8180106e-05   0.47825125 0.0032184591            0   0.47503279    1.5253303    2.0035815    3.9513904 
 1590000   0.99717353 -3.9760304e-05   0.50639918  0.014447381            0    0.4919518    1.4882815    1.9946807  -0.75355153 
 1595000    1.0129864 -3.5562523e-05   0.48301237 0.0072265029            0   0.47578587    1.5118823    1.9948946  -0.46318697 
 1600000    1.0240213 2.3470517e-05   0.46311128 0.0042737064            0   0.45883757    1.5283518     1.991463    3.6137452 
 1605000    1.0191152 6.8445143e-07   0.48291996  0.011695031            0   0.47122493    1.5210295    2.0039494    2.0512587 
 1610000    1.0399583 2.8420036e-05   0.47956783  0.012866271            0   0.46670156    1.5521378    2.0317056    3.9960985 
 1615000    1.0255811 2.8512421e-05    0.5090903 0.0063105876            0   0.50277972    1.5306798    2.0397701    4.0105486 
 1620000    1.0512832 -4.1749274e-05   0.48700857  0.016951404            0   0.47005716    1.5690401    2.0560487  -0.82966112 
 1625000    1.0598548 -3.5393939e-05   0.47975164  0.021542814            0   0.45820883    1.5818332    2.0615849   -0.3848442 
 1630000     1.060257 -4.9026781e-05   0.49989529  0.011953934            0   0.48794136    1.5824336    2.0823289   -1.3064022 
 1635000     1.026334 -2.5728859e-06   0.55086659  0.015153843            0   0.53571275    1.5318035    2.0826701    1.9048322 
 1640000     1.063623 -4.4518275e-06   0.48093237  0.013181914            0   0.46775046    1.5874574    2.0683897    1.7606794 
 1645000    1.0616792 -1.0302343e-05   0.47772136   0.01090631            0   0.46681505    1.5845562    2.0622776    1.3501796 
 1650000    1.0499649 2.2686243e-06   0.49247852 0.00087694819            0   0.49160158    1.5670726    2.0595511    2.2163585 
 1655000    1.0796074 -4.0717502e-05   0.44548679 3.1895772e-05            0    0.4454549     1.611314    2.0568008  -0.75759296 
 1660000    1.0960324 3.6298591e-05   0.41139648 0.00047909867            0   0.41091738    1.6358283    2.0472248    4.5561834 
 1665000     1.110982 8.549248e-06   0.40389605 0.00063295084            0    0.4032631    1.6581406    2.0620366    2.6529607 
 1670000    1.0614039 -3.928164e-05   0.46504891 0.0013581953            0   0.46369071    1.5841453    2.0491942  -0.66595273 
 1675000    1.0619081   4.2005e-05   0.47674779 0.0035911666            0   0.47315663    1.5848978    2.0616456    4.9650312 
 1680000    1.0536081 -4.6525234e-05   0.49075747  0.010811495            0   0.47994598    1.5725101    2.0632675   -1.1525566 
 1685000    1.0593354 1.2415465e-05   0.49314798 0.0035199309            0   0.48962805    1.5810581    2.0742061    2.9323631 
 1690000    1.0436722 -3.272314e-05    0.5021674  0.013561342            0   0.48860605    1.5576808    2.0598482  -0.20197521 
 1695000    1.0452719 -1.9231798e-05   0.50807101  0.011767918            0   0.49630309    1.5600682    2.0681393   0.73883738 
 1700000    1.0694072 4.4904981e-05   0.45622963 0.0038160158            0   0.45241361    1.5960903    2.0523199    5.1561522 
 1705000    1.0598996 1.6590095e-05    0.4815952 0.0016629389            0   0.47993226    1.5819002    2.0634954    3.2102028 
 1710000    1.0996059 3.3932094e-05   0.42623304 0.0016351758            0   0.42459786    1.6411618    2.0673948    4.4127812 
 1715000    1.0643076 -2.096636e-05   0.49010031 0.00072904046            0   0.48937127    1.5884791    2.0785794   0.62938461 
 1720000     1.097911 -2.3582719e-06   0.44189914 0.0043450251            0   0.43755412    1.6386321    2.0805313    1.9175275 
 1725000    1.0964983 -8.1166836e-05   0.45994534 0.0048216237            0   0.45512371    1.6365237     2.096469   -3.5137827 
 1730000    1.0891671 2.7640518e-05    0.4666693 0.0028483431            0   0.46382096    1.6255819    2.0922512    4.0027638 
 1735000    1.0927262 -7.1883913e-05   0.43976848 0.0069501649            0   0.43281831    1.6308939    2.0706623   -2.8979537 
 1740000    1.0386175 7.5614089e-07   0.52250371 0.0024742613            0   0.52002945    1.5501366    2.0726403    2.1249047 
 1745000    1.0744083 -2.5833453e-05    0.4802153 0.0044167748            0   0.47579853    1.6035543    2.0837696   0.29816138 
 1750000     1.111692 -5.2241735e-07   0.43155561  0.015110087            0   0.41644552    1.6592003    2.0907559    2.0546464 
 1755000    1.0495741 3.6677264e-05   0.53526664  0.014327606            0   0.52093903    1.5664893     2.101756    4.6368885 
 1760000     1.074496 -1.6835013e-05   0.51144808  0.014241977            0    0.4972061    1.6036853    2.1151334   0.95149729 
 1765000    1.0646664 -8.7967338e-05   0.50545331  0.017145519            0   0.48830779    1.5890146    2.0944679   -3.9858345 
 1770000    1.0583208 -1.9904665e-05   0.49946402 0.0059334804            0   0.49353054    1.5795438    2.0790078   0.70319732 
 1775000    1.0519412 1.7023712e-05   0.49288551 0.0094405362            0   0.48344497    1.5700223    2.0629078    3.2395867 
 1780000     1.067559 3.2323958e-05   0.46336638  0.010998367            0   0.45236802    1.5933318    2.0566982    4.2909302 
 1785000    1.0250735 1.6796198e-05   0.51622928  0.011121335            0   0.50510794    1.5299222    2.0461514    3.2071046 
 1790000    1.1067287 -2.6350545e-05   0.41750505 0.0021525328            0   0.41535252    1.6517926    2.0692976   0.24794797 
 1795000    1.0518537 -3.7457029e-05   0.49039133 0.00077732198            0   0.48961401    1.5698917     2.060283   -0.5287468 
 1800000    1.0066577 -6.1093862e-05   0.53765895 0.00049938735            0   0.53715956    1.5024366    2.0400956   -2.1827122 
 1805000    1.0519354 2.7371274e-05   0.48227596 0.0098185046            0   0.47245746    1.5700136    2.0522896     3.944192 
 1810000    1.0538442 4.9529992e-06   0.46660906 0.0080820905            0   0.45852697    1.5728625    2.0394716    2.3818229 
 1815000    1.0480765 -4.8593022e-05   0.47251821 0.0062429106            0    0.4662753    1.5642542    2.0367724   -1.3219772 
 1820000     1.064497 4.4529258e-05   0.44761999  0.016398981            0   0.43122101    1.5887618    2.0363818    5.1142441 
 1825000    1.0153551 2.7892678e-05   0.51784402  0.016415454            0   0.50142857    1.5154175    2.0332615    3.9612034 
 1830000    1.0315485 -3.8479705e-05   0.49670515 0.0054487217            0   0.49125643    1.5395861    2.0362913  -0.62342593 
 1835000    1.0635451 -1.511728e-05   0.46547957  0.013698151            0   0.45178142     1.587341    2.0528206    1.0079142 
 1840000    1.0407921 3.2302128e-06   0.48745367 0.0054363798            0   0.48201729    1.5533822    2.0408359    2.2641082 
 1845000    1.0448493 5.5514815e-05     0.492956 0.0034547851            0   0.48950121    1.5594375    2.0523935    5.8895775 
 1850000    1.0859592 -8.3883393e-05   0.42372131 0.0091529909            0   0.41456832    1.6207941    2.0445154   -3.7535047 
 1855000    1.0216336 1.2430836e-05   0.50538087  0.052222342            0   0.45315852    1.5247882    2.0301691    2.8893884 
 1860000    1.0926906 2.864548e-05   0.38830067  0.015165159            0   0.37313551    1.6308407    2.0191414    3.9991169 
 1865000    1.0595123 3.855452e-05   0.46851737  0.014422283            0   0.45409509     1.581322    2.0498394    4.7147278 
 1870000    1.0723627 -3.8322797e-05   0.43457021  0.011156307            0    0.4234139    1.6005013    2.0350715  -0.61380026 
 1875000     1.074879 -1.4857043e-05   0.43312643  0.020309562            0   0.41281687    1.6042568    2.0373833    1.0104645 
 1880000    1.0315887 -1.299534e-05   0.49650882 0.0042692218            0   0.49223959    1.5396461    2.0361549    1.1379171 
 1885000    1.0549541 -1.7674673e-05   0.46854642 0.0043193277            0   0.46422709    1.5745191    2.0430655   0.82139207 
 1890000    1.0972894 -1.2654531e-05   0.40694706 0.0033972858            0   0.40354977    1.6377045    2.0446515    1.1699703 
 1895000    1.0445715 9.5963852e-06   0.48603285 0.00030568662            0   0.48572716     1.559023    2.0450559     2.708358 
 1900000    1.0837395 1.7107599e-05   0.42572245 0.0045511152            0   0.42117134    1.6174813    2.0432037    3.2256809 
 1905000    1.0684612 2.8893401e-05   0.43898813  0.021038871            0   0.41794926    1.5946783    2.0336664    4.0307783 
 1910000    1.0454428 1.0356998e-05   0.46499601 0.0058842871            0   0.45911173    1.5603233    2.0253193     2.741195 
 1915000    1.0247454 -1.9922007e-05   0.48984789  0.009979761            0   0.47986812    1.5294325    2.0192804   0.64227131 
 1920000    1.0344848 -3.2560315e-05   0.48954723  0.012683156            0   0.47686407    1.5439686    2.0335158   -0.2170531 
 1925000    1.0119041 -2.2439719e-05   0.52701816 0.0091895862            0   0.51782858    1.5102669    2.0372851   0.48625175 
 1930000    1.0514506 -3.8609905e-05   0.47861264 0.0041312558            0   0.47448139      1.56929    2.0479027  -0.62081394 
 1935000     1.061115 -2.3149149e-05   0.46273204 0.00062753081            0   0.46210451    1.5837141    2.0464461   0.44637696 
 1940000    1.0646338 1.684139e-05   0.47112926  0.001073546            0   0.47005571    1.5889659    2.0600952    3.2241721 
 1945000    1.0715387 -4.7323014e-05    0.4735924 0.0026057939            0   0.47098661    1.5992716     2.072864   -1.1981028 
 1950000    1.0974237 5.0578505e-06   0.42638345 0.0035668809            0   0.42281656    1.6379049    2.0642884     2.413887 
 1955000     1.050296 2.386488e-05   0.49712055 0.0040296513            0    0.4930909    1.5675667    2.0646873    3.7142277 
 1960000    1.0762911 4.0171501e-06   0.46955896 0.0036995173            0   0.46585944    1.6063644    2.0759234    2.3535888 
 1965000    1.0919434 8.4097453e-06   0.45504725  0.010501032            0   0.44454622    1.6297255    2.0847728    2.6660544 
 1970000    1.0845891 -2.3740599e-05   0.46782727  0.010793383            0   0.45703388    1.6187493    2.0865766   0.44562638 
 1975000    1.0636825 -2.3843404e-05   0.48653568 0.0029545248            0   0.48358115    1.5875461    2.0740817   0.42602566 
 1980000    1.0839492 3.738274e-05   0.46435743  0.001262394            0   0.46309503    1.6177942    2.0821517    4.6660466 
 1985000    1.1192351 -2.0080333e-06   0.43224803 0.0057091052            0   0.42653893    1.6704583    2.1027064    1.9639111 
 1990000    1.1070088 -6.6910223e-06   0.45424018 0.0073792239            0   0.44686096    1.6522106    2.1064508    1.6439674 
 1995000    1.1259116 8.8920877e-06   0.45027179 0.0024526383            0   0.44781915    1.6804231    2.1306949     2.745316 
 2000000     1.099189 4.1129972e-05   0.50574914 0.0009686136            0   0.50478052    1.6405396    2.1462887    4.9891924 
 2005000    1.1257648 -1.4036863e-05   0.45893658 0.0029371326            0   0.45599945    1.6802039    2.1391405    1.1689125 
 2010000    1.0888027 1.7016454e-05   0.51165048 0.0073382571            0   0.50431222    1.6250381    2.1366885    3.3128658 
 2015000    1.0771298 3.2930088e-05   0.52340777  0.023741424            0   0.49966634    1.6076162     2.131024    4.4071517 
 2020000    1.0856793 1.4309236e-05   0.50586157 0.0035626441            0   0.50229892    1.6203764     2.126238    3.1152924 
 2025000    1.1150784 -6.9632652e-06   0.46435163 0.0032593551            0   0.46109228    1.6642546    2.1286062    1.6473053 
 2030000    1.1082771 -1.6854269e-05   0.46191468 0.00068205192            0   0.46123263    1.6541035    2.1160182   0.95105113 
 2035000    1.1187912 -2.3411401e-05   0.46015934 0.00012930723            0   0.46003003    1.6697958    2.1299552   0.51175915 
 2040000    1.0789371 -2.6601962e-05   0.54270514  0.001039658            0   0.54166548    1.6103136    2.1530187    0.3142911 
 2045000    1.0892206 -1.7000156e-05   0.52509747 0.0014180206            0   0.52367945    1.6256617    2.1507592   0.97570839 
 2050000    1.1237565 5.2270695e-06   0.47535405 0.0012037603            0   0.47415029    1.6772066    2.1525607    2.5138557 
 2055000    1.0945984 1.1068622e-05    0.5312205 0.0096742661            0   0.52154624     1.633688    2.1649086    2.9299717 
 2060000    1.1032258 -2.3448171e-05   0.51509835  0.010292032            0   0.50480632    1.6465645    2.1616629   0.54092529 
 2065000     1.107351 -5.3065935e-05   0.52450535 0.0061805348            0   0.51832482    1.6527213    2.1772266   -1.4906908 
 2070000    1.1618661 6.4136561e-05   0.45259457  0.010758389            0   0.44183619    1.7340852    2.1866798    6.6197989 
 2075000    1.1098609 4.7511796e-05   0.53075477 0.0069484686            0    0.5238063    1.6564675    2.1872222    5.4712376 
 2080000    1.1353305 -3.5633299e-05   0.49703564 0.0019075143            0   0.49512813    1.6944808    2.1915164  -0.27145718 
 2085000    1.1340577 -5.186294e-05   0.49823373 0.0007223164            0   0.49751141    1.6925811    2.1908149   -1.3939516 
 2090000    1.1361986 4.5151259e-05   0.46039997 0.0036387527            0   0.45676122    1.6957764    2.1561764    5.2770314 
 2095000    1.0617218 3.4329795e-05   0.58234676  0.014655007            0   0.56769175    1.5846198    2.1669666     4.539842 
 2100000    1.1196725 7.2068793e-05   0.46559245  0.012590504            0   0.45300195    1.6711112    2.1367037    7.1180986 
 2105000    1.1161712 -6.7365656e-05   0.47775257 0.0062779724            0    0.4714746    1.6658854     2.143638   -2.5126762 
 2110000    1.0978727 -2.7771064e-05   0.48494417 0.0095935468            0   0.47535063    1.6385751    2.1235192   0.20398333 
 2115000    1.0611346 -1.2446198e-05   0.54071474 0.0060387561            0   0.53467599    1.5837434    2.1244581     1.264177 
 2120000    1.0511811 2.3533968e-05    0.5604551  0.000868384            0   0.55958672    1.5688877    2.1293428    3.7560107 
 2125000    1.1059127 -5.5078405e-05   0.47644924 0.0060456624            0   0.47040358    1.6505747     2.127024   -1.6799954 
 2130000    1.0998913 -6.4511343e-06   0.47820393  0.008880625            0    0.4693233    1.6415878    2.1197917    1.6738893 
 2135000    1.0445247 -1.1006464e-05    0.5456283 0.0040040606            0   0.54162423    1.5589531    2.1045814    1.3438146 
 2140000    1.0792004 6.3663697e-05   0.50175905 0.0055963779            0   0.49616267    1.6107066    2.1124657    6.5129004 
 2145000    1.1403511 -9.3380582e-06   0.40843784  0.002682287            0   0.40575555    1.7019739    2.1104118    1.4649652 
 2150000    1.0848568 -1.5893894e-06   0.49440094  0.001541182            0   0.49285976    1.6191487    2.1135497    2.0036911 
 2155000     1.057247 -1.9929964e-05   0.53173863 0.0072074624            0   0.52453117    1.5779412    2.1096799   0.73212073 
 2160000    1.1010184 -2.0012038e-05   0.47426004  0.015491456            0   0.45876859      1.64327      2.11753   0.73429799 
 2165000    1.0775613 1.7244413e-05   0.50025807  0.030981179            0   0.46927689    1.6082602    2.1085182    3.3004521 
 2170000    1.1024256 3.9002775e-06   0.47401821   0.01582564            0   0.45819257    1.6453701    2.1193884    2.3889755 
 2175000    1.1005567 -1.1738083e-05   0.49430864 0.0035768388            0    0.4907318    1.6425808    2.1368895    1.3255532 
 2180000    1.0918923 7.0595419e-07   0.51741719  0.010251375            0   0.50716582    1.6296493    2.1470665    2.1958621 
 2185000    1.0794176 -6.3970063e-06   0.54361467  0.024749512            0   0.51886515    1.6110307    2.1546454    1.7124843 
 2190000    1.0880034 4.4197277e-05   0.53975751  0.027642492            0   0.51211502    1.6238451    2.1636026    5.2185185 
 2195000    1.0940752 -6.6156005e-05   0.54139397  0.011838033            0   0.52955594    1.6329073    2.1743013   -2.3984018 
 2200000    1.0977317 5.444705e-05   0.52539622 0.0044920874            0   0.52090413    1.6383646    2.1637608    5.9271409 
 2205000    1.0444216 -1.3236522e-05   0.57701299 0.0089915538            0   0.56802144    1.5587992    2.1358122    1.2209038 
 2210000    1.1004664 2.3045336e-05   0.49531026 0.0075986177            0   0.48771164    1.6424461    2.1377563      3.73065 
 2215000    1.1023154 3.0206013e-05   0.49963704  0.014987988            0   0.48464906    1.6452057    2.1448428    4.2326824 
 2220000    1.0927515 -2.3512025e-05   0.51609417  0.013677451            0   0.50241672    1.6309316    2.1470258   0.52187461 
 2225000    1.1125493 5.4481213e-05   0.47948932 0.0082414883            0   0.47124783    1.6604799    2.1399692    5.9057106 
 2230000    1.0396057 -2.5025715e-05   0.59552721 0.0026457134            0    0.5928815    1.5516115    2.1471387   0.41736127 
 2235000    1.0574019 -3.1772478e-05   0.56028867 0.0022353638            0   0.55805331    1.5781723     2.138461 -0.057652728 
 2240000     1.076537 -2.704899e-05   0.54271774 0.0082287182            0   0.53448902    1.6067314    2.1494491   0.27982295 
 2245000    1.0456953 -5.164207e-05   0.58907644 0.0064042034            0   0.58267224    1.5607002    2.1497767   -1.4197232 
 2250000    1.1039374 -7.8206284e-06   0.49500005 0.0027083094            0   0.49229174    1.6476265    2.1426266    1.6020647 
 2255000    1.0973032 -7.1367212e-05   0.51375664 0.0019056746            0   0.51185097    1.6377251    2.1514817   -2.7814199 
 2260000    1.0589361 -8.379625e-06   0.58484977 0.0029529806            0   0.58189679    1.5804622    2.1653119    1.5861122 
 2265000    1.0994262 -6.8484769e-06   0.51641327 0.0043503947            0   0.51206288    1.6408937    2.1573069    1.6839402 
 2270000    1.0608554 -5.9095434e-05   0.56657706 0.0034956683            0   0.56308139    1.5833267    2.1499037   -1.9347727 
 2275000    1.0798815 -4.2908005e-05   0.54262087  0.016667764            0   0.52595311    1.6117231     2.154344  -0.81145733 
 2280000    1.1021975 -7.7472528e-06   0.51795207  0.011885037            0   0.50606703    1.6450298    2.1629819    1.6274918 
 2285000    1.0988325 -1.3551023e-05   0.52986789  0.010456353            0   0.51941154    1.6400075    2.1698754    1.2332287 
 2290000    1.0916803 1.9446166e-05   0.54015228 0.0041485405            0   0.53600374    1.6293329    2.1694852    3.5136042 
 2295000    1.0626426 -1.0790624e-05   0.58480041 0.0028635538            0   0.58193686    1.5859941    2.1707945    1.4249465 
 2300000    1.0844834 1.154339e-05   0.55504685 0.0048164366            0   0.55023042    1.6185914    2.1736383    2.9715174 
 2305000    1.1091753 -2.637793e-05    0.5084883 0.0077345399            0   0.50075376    1.6554442    2.1639325   0.34068993 
 2310000     1.093006 -2.1830579e-05   0.51741195  0.012836702            0   0.50457525    1.6313114    2.1487234   0.63979371 
 2315000    1.0496786 -4.4140697e-05   0.58898955  0.016314061            0   0.57267548    1.5666453    2.1556348  -0.89537015 
 2320000    1.0654581 6.7434133e-05   0.55892967  0.011688124            0   0.54724155    1.5901962    2.1491259    6.8101731 
 2325000    1.0926007 1.8695614e-05   0.50580406  0.012109576            0   0.49369449    1.6307066    2.1365106    3.4287514 
 2330000    1.0808965 2.7081596e-05   0.50457073 0.0069288792            0   0.49764185     1.613238    2.1178088    3.9896887 
 2335000    1.0201874 -3.4221236e-05   0.58809581  0.010933284            0   0.57716253    1.5226298    2.1107256  -0.25464628 
 2340000    1.0121834 2.8939257e-05    0.5667268 0.0078695049            0   0.55885729    1.5106837    2.0774105     4.077692 
 2345000    1.0340461 8.556589e-05   0.52213569  0.010663584            0   0.51147211    1.5433138    2.0654495    7.9797639 
 2350000    1.0104134 -4.7234135e-05   0.54220239 0.0082823563            0   0.53392003     1.508042    2.0502444    -1.214579 
 2355000    1.0272882 -4.4350438e-05   0.49445836 0.0051356305            0   0.48932273    1.5332276     2.027686   -1.0378163 
 2360000    1.0068816 2.1323753e-06   0.52925562  0.010651791            0   0.51860383    1.5027708    2.0320265    2.1794162 
 2365000    0.9989408 5.0674671e-05   0.53404465  0.012908996            0   0.52113565    1.4909191    2.0249638    5.5275971 
 2370000    1.0003986 -1.7297852e-05   0.51082084 0.0017618096            0   0.50905903    1.4930949    2.0039157   0.80828817 
 2375000   0.98073964 -9.6847934e-06   0.52482932 0.0024783803            0   0.52235094    1.4637539    1.9885832    1.3191703 
 2380000   0.95156233 -3.1602174e-05   0.54855348 0.0046855557            0   0.54386792    1.4202068    1.9687603  -0.21558203 
 2385000   0.95814746 -4.7597312e-05   0.53870342  0.009191109            0   0.52951231    1.4300351    1.9687385   -1.3211877 
 2390000   0.98465271 -1.7402785e-05    0.4981005  0.006879303            0    0.4912212    1.4695942    1.9676947   0.76481415 
 2395000   0.98429748 7.097275e-05   0.50489445 0.0020298453            0   0.50286461     1.469064    1.9739584    6.8795949 
 2400000   0.95783872 2.9824971e-05   0.52051029 0.0095645842            0   0.51094571    1.4295743    1.9500846    4.0115866 
 2405000   0.94480003 1.5958784e-05   0.53783881   0.01660975            0   0.52122906     1.410114    1.9479528     3.051024 
 2410000   0.99033889 -9.7512306e-06   0.47145523  0.020205851            0   0.45124938    1.4780808     1.949536     1.275531 
 2415000   0.99534693 8.2288148e-05   0.47046392 0.0049746516            0   0.46548926    1.4855553    1.9560192     7.643776 
 2420000   0.98198311 -4.7581305e-05   0.50537553 0.0023809628            0   0.50299456    1.4656098    1.9709853   -1.3178345 
 2425000      0.97112 -2.5500767e-06   0.51185312 0.0086986552            0   0.50315447    1.4493966    1.9612497    1.7849884 
 2430000   0.97802186 -3.5704898e-05    0.4980647  0.010881702            0   0.48718299    1.4596976    1.9577623  -0.51016021 
 2435000   0.95922669 5.0653656e-07   0.52731674  0.011153611            0   0.51616313    1.4316458    1.9589626    1.9939744 
 2440000   0.94670707 -6.0297299e-05   0.55133959 0.0062443521            0   0.54509523    1.4129603    1.9642999   -2.2034495 
 2445000   0.97091674 -3.2073799e-05   0.50503631 0.0024997449            0   0.50253656    1.4490932    1.9541295  -0.26281146 
 2450000   0.98994241 -7.7833817e-06    0.4911749 0.00081611308            0   0.49035879     1.477489    1.9686639    1.4306766 
 2455000   0.95203925 2.790532e-05   0.54680089 0.0033255969            0   0.54347529    1.4209186    1.9677195    3.8965352 
 2460000   0.96957124 -6.0812041e-06   0.52413542 0.0038504189            0     0.520285    1.4470851    1.9712205    1.5508877 
 2465000   0.95792118 3.4838148e-05   0.55240582 0.0055072184            0    0.5468986    1.4296974    1.9821032     4.390116 
 2470000   0.94341414 2.2890812e-05   0.57414666  0.015285349            0   0.55886131    1.4080456    1.9821923    3.5644052 
 2475000     1.003699 3.2164148e-05   0.48017474 0.0048160497            0   0.47535869    1.4980208    1.9781955    4.2013814 
 2480000   0.98630097 4.0068977e-05   0.50050844 0.0019907395            0    0.4985177    1.4720542    1.9725626    4.7421303 
 2485000    0.9880143 -3.4526721e-05   0.49864277 0.0034486143            0   0.49519416    1.4746113    1.9732541  -0.41323286 
 2490000   0.97266819 -3.4947877e-05   0.51903951 0.0009915602            0   0.51804795    1.4517073    1.9707468  -0.44485049 
 2495000   0.95434382 6.6370896e-06   0.53808951 7.0100738e-05            0   0.53801941    1.4243582    1.9624477    2.4212033 
 2500000   0.96650809 7.7200631e-06   0.51687209 0.00050043317            0   0.51637166    1.4425133    1.9593854    2.4929962 
 2505000   0.96046898 9.9510072e-06   0.52426072 0.0042893051            0   0.51997142    1.4334999    1.9577607    2.6455743 
 2510000   0.96665672 3.1033437e-05   0.50379911 0.0073774909            0   0.49642162    1.4427351    1.9465343    4.0915654 
 2515000   0.96094092 -1.2386707e-05   0.50919837 0.0048960708            0    0.5043023    1.4342043    1.9434027    1.0872335 
 2520000   0.97175136 -3.0724379e-05   0.47904434 0.0075534438            0   0.47149089    1.4503389    1.9293832  -0.19428581 
 2525000   0.93722817 -2.8263898e-05    0.5332073 0.0062020991            0   0.52700521     1.398813    1.9320203 -0.021580292 
 2530000   0.98278661 -3.0805865e-08   0.46383205 0.0051122391            0   0.45871981     1.466809    1.9306411    1.9285118 
 2535000   0.92907824 -8.2961911e-06   0.54404505  0.010035212            0   0.53400984    1.3866493    1.9306943    1.3572616 
 2540000   0.94406399 -6.7541991e-06    0.5238401 0.0069374889            0   0.51690261    1.4090155    1.9328556    1.4660054 
 2545000   0.96265165 -3.3890848e-05   0.52158417 0.0047593024            0   0.51682487    1.4367576    1.9583418  -0.38419365 
 2550000   0.97803154 3.9510573e-07   0.49231528 0.0078645233            0   0.48445075    1.4597121    1.9520274    1.9793371 
 2555000   0.95674629 -7.3480862e-06   0.52712386  0.011072966            0    0.5160509    1.4279438    1.9550677     1.447168 
 2560000   0.98461852 -3.2976664e-05   0.48331649 0.0041539521            0   0.47916254    1.4695431    1.9528596  -0.32648741 
 2565000   0.97287233 -1.5057449e-07   0.50308943 0.0011825271            0    0.5019069     1.452012    1.9551014    1.9446937 
 2570000   0.94771205 -2.4660906e-05   0.54693084  0.011016474            0   0.53591437    1.4144602    1.9613911   0.25682923 
 2575000   0.97830094 -4.6191084e-05   0.51251701 0.0081419348            0   0.50437507    1.4601142    1.9726312   -1.2200966 
 2580000    1.0043286 2.0901086e-05   0.47119695 0.0013717174            0   0.46982523    1.4989605    1.9701574    3.4148405 
 2585000    0.9266662 7.0122761e-06   0.58326221 0.00091188885            0   0.58235032    1.3830493    1.9663115        2.451 
 2590000   0.95715817 1.2634683e-05    0.5339653  0.001808867            0   0.53215643    1.4285586    1.9625239    2.8358332 
 2595000   0.94905534 -6.9769394e-06   0.52865226  0.003199719            0   0.52545254    1.4164651    1.9451174    1.4628713 
 2600000    1.0166622 6.6325178e-05   0.43206422 0.0023742478            0   0.42968997    1.5173683    1.9494325    6.5338288 
 2605000   0.97737725 1.0109395e-05   0.48901055 0.0017332771            0   0.48727727    1.4587356    1.9477461    2.6465075 
 2610000   0.97133245 -7.86712e-05   0.51203723  0.002311689            0   0.50972554    1.4497137    1.9617509   -3.4760025 
 2615000   0.96738378 4.0594917e-05   0.51301536 0.00091175593            0    0.5121036    1.4438203    1.9568356    4.7627563 
 2620000    1.0039157 1.8428861e-06    0.4626865 0.0015391216            0   0.46114738    1.4983441    1.9610306    2.0884109 
 2625000   0.95725086 -6.5319916e-05   0.53398185  0.006863274            0   0.52711857    1.4286969    1.9626788   -2.5522338 
 2630000   0.98525523 1.6979373e-05   0.47399069 0.0041292809            0   0.46986141    1.4704934    1.9444841    3.1180984 
 2635000   0.95983402 -4.5261466e-05   0.51311479 0.0024505186            0   0.51066427    1.4325523    1.9456671   -1.1828055 
 2640000   0.95808874 -2.8548556e-05   0.50363903 0.0028586053            0   0.50078042    1.4299474    1.9335865 -0.039689713 
 2645000   0.93583334 6.4027715e-05   0.52132463 0.0056293582            0   0.51569527    1.3967313    1.9180559    6.3436516 
 2650000   0.93767431 -3.4271316e-05   0.51152761 0.0063373373            0   0.50519027    1.3994789    1.9110065  -0.45782683 
 2655000   0.94603549 -4.3898601e-05   0.48151191 0.0039327333            0   0.47757918     1.411958    1.8934699   -1.1408014 
 2660000   0.97233264 -1.818113e-05   0.43201357 0.0078673578            0   0.42414621    1.4512065      1.88322   0.62654033 
 2665000   0.94743625 8.9081846e-06   0.45829599 0.0047230575            0   0.45357293    1.4140486    1.8723446    2.4880783 
 2670000   0.88624973 -4.5741753e-05   0.55936189 0.0021331954            0    0.5572287    1.3227277    1.8820896   -1.2795804 
 2675000   0.91906103 -3.203012e-05   0.50827053  0.014895361            0   0.49337517    1.3716986    1.8799691  -0.33395278 
 2680000   0.95717467 2.6109711e-05   0.47912537 0.0060592276            0   0.47306614    1.4285832    1.9077086    3.7124118 
 2685000   0.94992833 1.9648148e-05   0.47644194 0.0074248291            0   0.46901711     1.417768      1.89421      3.25229 
 2690000   0.95505359 -2.1065644e-05   0.45302805 0.0064005533            0    0.4466275    1.4254175    1.8784455   0.42238824 
 2695000   0.93118339 -4.1405619e-05   0.48868558 0.0078274723            0   0.48085811    1.3897912    1.8784768  -0.98347958 
 2700000    0.9381079 -1.6347307e-05    0.4978416  0.019400248            0   0.47844135     1.400126    1.8979676   0.76804179 
 2705000   0.98502695 -4.8405321e-05    0.4491687 0.0057490933            0   0.44341961    1.4701527    1.9193214   -1.4264543 
 2710000   0.94492992 2.8996218e-05    0.5152346  0.011983582            0   0.50325102    1.4103079    1.9255425    3.9297611 
 2715000   0.99406996 -8.0967715e-06   0.45781338  0.011684592            0   0.44612879    1.4836494    1.9414628     1.381814 
 2720000    1.0067634 7.3261065e-06   0.44266629 0.0077898598            0   0.43487643    1.5025944    1.9452607    2.4516412 
 2725000   0.99518246 1.1561649e-05   0.45937752  0.012321339            0   0.44705618    1.4853098    1.9446873    2.7438285 
 2730000    0.9231907 -2.4566625e-05   0.55517913  0.020838591            0   0.53434054    1.3778621    1.9330412   0.23499609 
 2735000   0.96751708 1.9547816e-06   0.48915306 0.0063406946            0   0.48281236    1.4440192    1.9331723    2.0682868 
 2740000   0.98059801 1.3815199e-05   0.46531198   0.00246609            0   0.46284589    1.4635425    1.9288545     2.883761 
 2745000    0.9648416 -6.4472218e-06   0.48234495 0.0025964235            0   0.47974853    1.4400261     1.922371    1.4767391 
 2750000    1.0023355 -6.1123549e-05   0.43622771 0.0046460605            0   0.43158165    1.4959858    1.9322135   -2.2926463 
 2755000   0.97822395 -2.0657308e-05   0.48217347 0.0039027321            0   0.47827074    1.4599992    1.9421727   0.51433957 
 2760000    1.0048663 -1.6146653e-05   0.43172998 0.0033658643            0   0.42836411     1.499763     1.931493   0.81543637 
 2765000   0.95491797 4.4132075e-05   0.49637482 0.0082390887            0   0.48813573    1.4252151    1.9215899    4.9719989 
 2770000   0.96794225 -1.3716263e-05   0.47572149 0.0079220163            0   0.46779948    1.4446538    1.9203753   0.97230717 
 2775000     1.008634 7.6600959e-06   0.42601212  0.026551177            0   0.39946094    1.5053863    1.9313984    2.4608642 
 2780000   0.95139554 -3.6497669e-05   0.50823003  0.024164584            0   0.48406545    1.4199578    1.9281879  -0.59453098 
 2785000   0.94858162 -5.7103998e-05   0.52833018  0.025751004            0   0.50257918    1.4157581    1.9440883   -2.0029401 
 2790000   0.98781905 -1.7922051e-05   0.48361127 0.0038653638            0   0.47974591    1.4743199    1.9579312   0.71915904 
 2795000    1.0091774 7.7093999e-05   0.44773959 0.0091763278            0   0.43856326    1.5061973    1.9539369    7.2826741 
 2800000   0.95828336 -4.8551221e-05   0.51732176  0.017291649            0   0.50003012    1.4302379    1.9475597   -1.4083007 
 2805000   0.98367531 -1.1191255e-05   0.48872115   0.02427185            0    0.4644493    1.4681354    1.9568566     1.183317 
 2810000   0.97735357 1.6256963e-05    0.4918212 0.0045452409            0   0.48727596    1.4587002    1.9505214    3.0742027 
 2815000    1.0210695 -1.10812e-05    0.4353979 0.0027827345            0   0.43261517    1.5239462    1.9593441    1.1934115 
 2820000   0.99138911 -6.0272998e-05   0.47204794  0.018742193            0   0.45330574    1.4796483    1.9516962   -2.2143734 
 2825000   0.93898385 2.2998375e-05    0.5589432  0.027789302            0    0.5311539    1.4014334    1.9603766    3.5500243 
 2830000   0.98199177 3.4685261e-05   0.50517123 0.0080854835            0   0.49708575    1.4656227    1.9707939    4.3682392 
 2835000    1.0228019 -2.0911234e-06   0.43984318 0.0088944332            0   0.43094875    1.5265318     1.966375    1.8218365 
 2840000    1.0132339 3.7379742e-05    0.4747612 0.0049556887            0   0.46980551    1.5122515    1.9870127    4.5707005 
 2845000   0.98951033 -1.8261656e-05   0.50956807 0.0024335592            0   0.50713451    1.4768442    1.9864122   0.72416654 
 2850000   0.98930068 -1.1526091e-05   0.49986903  0.011331275            0   0.48853776    1.4765313    1.9764003    1.1797169 
 2855000    1.0140309 3.1523633e-05   0.47293939  0.016875946            0   0.45606344     1.513441    1.9863804     4.165294 
 2860000    1.0023538 8.0654696e-06   0.51086842  0.028796695            0   0.48207172     1.496013    2.0068814    2.5643667 
 2865000   0.99341003 -2.9643555e-05    0.5218965  0.011854487            0   0.51004201    1.4826645     2.004561 -0.044401537 
 2870000    0.9924631 -4.4840994e-06   0.52799426 0.0064846637            0    0.5215096    1.4812512    2.0092454    1.6993045 
 2875000   0.98267309 -1.3270681e-05   0.52516685   0.00673357            0   0.51843328    1.4666396    1.9918064    1.0745369 
 2880000   0.97618426 2.4016412e-05   0.51249245  0.009750594            0   0.50274186     1.456955    1.9694475    3.6294619 
 2885000   0.97707804 6.436532e-05   0.52016163  0.016930715            0   0.50323092     1.458289    1.9784506    6.4273815 
 2890000   0.99397454 4.0390818e-05   0.52861874 0.0033747873            0   0.52524395     1.483507    2.0121257     4.803939 
 2895000    0.9844046 3.5235528e-05   0.54605747 0.0020455664            0    0.5440119    1.4692239    2.0152813    4.4507611 
 2900000   0.98420219 3.2031337e-05   0.52103707 0.0048381358            0   0.51619893    1.4689218    1.9899588    4.2039648 
 2905000   0.94216014 -3.9149454e-05   0.55454035  0.021014157            0   0.53352619     1.406174    1.9607144  -0.74529594 
 2910000   0.96381726 9.4773035e-06   0.52671524  0.019040553            0   0.50767469    1.4384973    1.9652125    2.6202837 
 2915000    1.0337905 8.3413893e-06   0.45811472  0.002147727            0   0.45596699    1.5429322     2.001047    2.5776038 
 2920000    1.0145313 -7.6432329e-06     0.467927 0.0061880871            0   0.46173891     1.514188     1.982115    1.4538147 
 2925000    1.0559266 -3.3636891e-05   0.39838457 0.0051244327            0   0.39326014    1.5759705    1.9743551  -0.35062685 
 2930000    1.0171487 -1.9602513e-05   0.45337567 0.0057842004            0   0.44759146    1.5180944    1.9714701   0.61654433 
 2935000   0.99005327 1.0524701e-07   0.50365994 0.0095758037            0   0.49408414    1.4776545    1.9813144    1.9885891 
 2940000   0.99844403 1.9882936e-05   0.49230857  0.018349483            0   0.47395909    1.4901777    1.9824863    3.3567948 
 2945000    1.0547821 -4.5908685e-05   0.39643005  0.015908275            0   0.38052177    1.5742622    1.9706923    -1.202516 
 2950000   0.96290671 -5.071171e-05    0.5528213 0.0052266876            0   0.54759461    1.4371383    1.9899596   -1.5152338 
 2955000   0.99119124 2.5410011e-05   0.50212048  0.018322026            0   0.48379845    1.4793529    1.9814734    3.7378134 
 2960000    1.0243624 3.0722748e-06   0.44410678  0.015881627            0   0.42822515    1.5288609    1.9729677    2.1853234 
 2965000    1.0195173 -3.3559018e-05    0.4450841  0.013376329            0   0.43170777    1.5216295    1.9667136  -0.35288572 
 2970000   0.97467057 3.0366934e-05   0.53631206  0.013613866            0   0.52269819    1.4546958    1.9910079    4.0899704 
 2975000   0.93681473 -2.0595141e-05    0.5892722  0.016067594            0   0.57320461     1.398196    1.9874682   0.56393203 
 2980000   0.99139584 -6.5244164e-06    0.5348161 0.0077329126            0   0.52708319    1.4796583    2.0144744    1.5635067 
 2985000    1.0287369 5.9023725e-05   0.47771169 0.0028190855            0    0.4748926    1.5353898    2.0131014    6.0928213 
 2990000    1.0571278 -6.6202764e-06   0.42954491 0.0057628392            0   0.42378207    1.5777633    2.0073082    1.5497147 
[...]
19285000    1.0896738 2.353757e-05   0.44104825  0.027542069            0   0.41350618    1.6263381    2.0673863    3.6943032 
19290000    1.0218266 -4.7440663e-05   0.54146913  0.017789203            0   0.52367992    1.5250762    2.0665453   -1.2125533 
19295000    1.0054138 -5.8594271e-05    0.5674469  0.023326221            0   0.54412068    1.5005801     2.068027    -1.982009 
19300000    1.0594252 -4.7134605e-05   0.48272601  0.031658785            0   0.45106723    1.5811921    2.0639181   -1.1940258 
19305000    1.0588433 -5.3600161e-05   0.49475682   0.02133381            0   0.47342301    1.5803236    2.0750804   -1.6297627 
19310000    1.0272987 -2.4449512e-05   0.54978035  0.011036591            0   0.53874376    1.5332433    2.0830237    0.3930734 
19315000    1.0328075 -2.2110682e-05   0.52026692 0.0078624077            0   0.51240451    1.5414652    2.0617321   0.53344178 
19320000    1.0547581 -1.1503775e-05   0.47770191 0.0071927169            0   0.47050919    1.5742265    2.0519284    1.2567875 
19325000    1.0640629 -9.8182536e-06   0.48143018  0.011168607            0   0.47026157    1.5881139    2.0695441    1.3909064 
19330000    1.0810126 -2.5283492e-05   0.44497835  0.018126755            0   0.42685159    1.6134114    2.0583897   0.31079472 
19335000    1.0222725 1.4500209e-05   0.53910037  0.018633382            0   0.52046699    1.5257418    2.0648422    3.0670966 
19340000    1.0344431 -5.9708434e-07   0.51662446  0.028903017            0   0.48772144    1.5439064    2.0605308    2.0192603 
19345000    1.0757859 -5.5326752e-06   0.46435509  0.017486127            0   0.44686896    1.6056104    2.0699655     1.687547 
19350000    1.0149951 3.4607124e-05   0.54740459  0.013608258            0   0.53379633    1.5148802    2.0622847    4.4543291 
19355000    1.0313059 2.1874355e-06   0.52697519  0.067329056            0   0.45964613    1.5392241    2.0661993    2.2173949 
19360000    1.0626917 3.6144492e-05   0.46206403  0.017163622            0   0.44490041    1.5860674    2.0481314    4.5464387 
19365000    1.0111312 3.8382127e-05   0.52664887 0.0096707878            0   0.51697808    1.5091133    2.0357621    4.6887347 
19370000    1.0286331 -2.9650539e-05   0.48423086  0.016660396            0   0.46757046    1.5352349    2.0194657 -0.029979497 
19375000    1.0134338 2.4035479e-05   0.50747455  0.014690452            0    0.4927841    1.5125499    2.0200245    3.6813568 
19380000    1.0213938 -3.5126756e-06   0.49091192 0.0092733186            0    0.4816386    1.5244303    2.0153422    1.7725461 
19385000    1.0209223 -2.9714496e-05     0.488393  0.038380002            0     0.450013    1.5237265    2.0121195 -0.041746474 
19390000   0.96416419 -4.6498578e-05   0.55666806  0.041298936            0   0.51536912    1.4390151    1.9956831   -1.2182986 
19395000   0.99184605 -4.694817e-06    0.5542248  0.030694061            0   0.52353074    1.4803302     2.034555    1.7100493 
19400000    1.0315083 2.4270373e-05    0.4936905  0.019800525            0   0.47388998    1.5395261    2.0332166    3.7107848 
19405000    1.0027004 -1.7034561e-05   0.53448016  0.016779854            0   0.51770031    1.4965304    2.0310105   0.85358171 
19410000    1.0245714 2.9195453e-05   0.50785623  0.011420421            0   0.49643581    1.5291728     2.037029    4.0550187 
19415000    1.0588753 4.6676587e-05   0.44058372 0.0099699267            0    0.4306138    1.5803714    2.0209552    5.2472408 
19420000    1.0198433 2.4057025e-05   0.47763229  0.015471257            0   0.46216103    1.5221161    1.9997484      3.66257 
19425000    1.0398765 -1.7649074e-05   0.44637331  0.011998876            0   0.43437444    1.5520157     1.998389   0.77848507 
19430000    1.0222317 -6.0115586e-06    0.4731625  0.014524812            0   0.45863768    1.5256807    1.9988432    1.5833243 
19435000    1.0386805 -8.3622195e-06   0.46385346  0.028245822            0   0.43560763    1.5502306    2.0140841    1.4360875 
19440000    0.9839925 -1.3464889e-05   0.53188408  0.013765416            0   0.51811866    1.4686088    2.0004929    1.0697998 
19445000    1.0413813 3.4105992e-05   0.47120317 0.0057056167            0   0.46549755    1.5542616    2.0254647    4.3828709 
19450000    1.0388218 -4.4812373e-05   0.48419839  0.013488059            0   0.47071034    1.5504415    2.0346399   -1.0627913 
19455000   0.99949007 -4.0736134e-05   0.53986811  0.010167842            0   0.52970027    1.4917389     2.031607  -0.78407457 
19460000    1.0239902 3.8634042e-05   0.51249606  0.010402278            0   0.50209379    1.5283053    2.0408014    4.7111864 
19465000    1.0196297 9.5338771e-06   0.52009028   0.04247414            0   0.47761614    1.5217974    2.0418877    2.7008693 
19470000     1.003416 -3.260393e-05   0.55039587  0.034082061            0   0.51631381    1.4975984    2.0479942  -0.20558938 
19475000    1.0385996 2.3245893e-05   0.49966562  0.019194285            0   0.48047133    1.5501099    2.0497755    3.6565316 
19480000    1.0234647 2.880352e-05   0.52526532  0.014748977            0   0.51051634    1.5275211    2.0527864    4.0436857 
19485000    1.0615455 3.5601161e-05   0.46021233 0.0087406429            0   0.45147168    1.5843567     2.044569    4.5053213 
19490000    1.0149007 -4.2128672e-05   0.51589474  0.009119178            0   0.50677556    1.5147393     2.030634  -0.88129974 
19495000     1.049821 1.293089e-05   0.47510267 0.0080120323            0   0.46709064    1.5668578    2.0419604    2.9357436 
19500000   0.99361213 3.0237132e-06   0.55953449  0.027327961            0   0.53220653    1.4829661    2.0425006    2.2514996 
19505000   0.93771918 -4.9129199e-05   0.63125915  0.050040501            0   0.58121865    1.3995459     2.030805   -1.3650052 
19510000    1.0109328 -1.1625565e-05    0.5025004  0.016964154            0   0.48553625    1.5088172    2.0113176    1.2077585 
19515000   0.99787306 1.3976618e-06   0.51887178  0.024433454            0   0.49443832    1.4893255    2.0081973    2.1048037 
19520000    1.0262833 -2.2432074e-05   0.47999009  0.012389738            0   0.46760036    1.5317278    2.0117179   0.46121297 
19525000      1.01538 2.4082086e-05   0.51486734  0.019913108            0   0.49495423    1.5154546     2.030322    3.6948758 
19530000    1.0109804 -2.3021204e-06   0.52480188  0.030659347            0   0.49414253    1.5088882    2.0336901    1.8745675 
19535000    1.0434331 1.4924826e-05   0.50117339  0.025111306            0   0.47606208     1.557324    2.0584973    3.0901013 
19540000    1.0593209 -3.1229715e-05   0.46538014  0.013565949            0   0.45181419    1.5810365    2.0464166  -0.11218125 
19545000    1.0136127 -2.8062125e-05   0.52326998   0.02185125            0   0.50141873    1.5128169    2.0360869  0.096432799 
19550000    1.0516126 2.3089184e-05   0.46356717  0.012840506            0   0.45072667    1.5695318     2.033099    3.6290233 
19555000    1.0497575 2.2298826e-05   0.46818155  0.016811353            0    0.4513702     1.566763    2.0349446    3.5762394 
19560000    1.0396976 -1.1035693e-05   0.49374941  0.019484477            0   0.47426494    1.5517486     2.045498     1.282711 
19565000    1.0488199 3.5159497e-05   0.50629204   0.04514638            0   0.46114566    1.5653636    2.0716557    4.5018801 
19570000    1.0388814 4.6017107e-05   0.51898831  0.038848193            0   0.48014012    1.5505305    2.0695188    5.2502212 
19575000    1.0865043 1.0820392e-05   0.46507926  0.019667828            0   0.44541143    1.6216077     2.086687    2.8345924 
19580000    1.1059162 2.0900152e-05   0.45853779  0.015864336            0   0.44267345      1.65058    2.1091178    3.5537363 
19585000    1.0152225 -1.3327667e-05    0.6009725  0.034419592            0   0.56655291    1.5152196    2.1161921    1.1949837 
19590000    1.0555735 -3.1438451e-05   0.55373957  0.026154227            0   0.52758534    1.5754435    2.1291831 -0.043842656 
19595000    1.0603768 2.2827899e-05   0.52953693   0.05494152            0   0.47459541    1.5826124    2.1121494    3.6900137 
19600000    1.0828775 1.7167983e-05   0.49634892    0.0154952            0   0.48085371    1.6161947    2.1125436    3.2991946 
19605000    1.0208555 2.5851211e-05   0.59753973 0.0086526549            0   0.58888707    1.5236268    2.1211665    3.9080022 
19610000    1.0944533 3.1196932e-05   0.48604932  0.012096793            0   0.47395252    1.6334715    2.1195208    4.2758528 
19615000    1.1049293 1.7008095e-05   0.46626344  0.030805911            0   0.43545753     1.649107    2.1153704      3.29097 
19620000     1.057816 -2.6426927e-05   0.54030439  0.033290249            0   0.50701414    1.5787903    2.1190947   0.29246548 
19625000    1.0255675 -7.3636708e-05   0.58844075  0.044354903            0   0.54408584    1.5306595    2.1191002    -2.970669 
19630000    1.1065172 -3.9961018e-05   0.46400674   0.01305672            0   0.45095002    1.6514769    2.1154837  -0.64662188 
19635000    1.0702908 3.111208e-06   0.50731339   0.01960652            0   0.48770687    1.5974091    2.1047225    2.3197692 
19640000     1.068995 4.8929661e-05   0.50198709  0.040978642            0   0.46100845     1.595475    2.0974621    5.4794803 
19645000    1.1040351 3.1673925e-06   0.46318695  0.031111029            0   0.43207592    1.6477724    2.1109594    2.3298895 
19650000    1.0379265 -6.2865416e-05   0.54131442  0.019796295            0   0.52151813    1.5491054    2.0904198   -2.2548378 
19655000    1.0447539 3.0479882e-05   0.53291208  0.018133472            0   0.51477861    1.5592952    2.0922073    4.1989767 
19660000    1.0230604 2.2718432e-05   0.53948461  0.021924472            0   0.51756014    1.5269176    2.0664023    3.6367003 
19665000      1.05241 -1.504308e-05   0.49522294  0.020729717            0   0.47449323    1.5707219    2.0659448    1.0261671 
19670000    1.0665595 -1.7059433e-05   0.47506856  0.024503633            0   0.45056493      1.59184    2.0669086   0.88776056 
19675000    1.0240819 -4.5944298e-05   0.54178361  0.015604485            0   0.52617913    1.5284422    2.0702258   -1.1054441 
19680000    1.0120715 -4.2153334e-05   0.56072234    0.0146563            0   0.54606604    1.5105168    2.0712391  -0.84239934 
19685000    1.0610531 2.0675239e-05   0.49294299  0.021770656            0   0.47117234    1.5836217    2.0765647    3.5056373 
19690000    1.0798012 1.8536088e-05   0.46814702  0.019248633            0   0.44889839    1.6116033    2.0797503    3.3609648 
19695000    1.0348324 -3.5976116e-05   0.54227574  0.039707523            0   0.50256822    1.5444873     2.086763  -0.39990611 
19700000    1.0155379 -1.5217553e-05    0.5824015  0.051626862            0   0.53077464    1.5156903    2.0980919    1.0462546 
19705000    1.0602003 -6.5636137e-07   0.51538722  0.019924856            0   0.49546237     1.582349    2.0977362    2.0523685 
19710000    1.0454801 -1.6151722e-05   0.55646417  0.011613003            0   0.54485116     1.560379    2.1168432    1.0004362 
19715000    1.0797102 -1.1334173e-05   0.48942032  0.025695179            0   0.46372514    1.6114675    2.1008878    1.3174698 
19720000    1.0779338 2.1335661e-06   0.48010354  0.035179033            0   0.44492451    1.6088162    2.0889198    2.2363919 
19725000    1.0554586 -3.5322466e-07   0.50054247  0.025765879            0   0.47477659     1.575272    2.0758145    2.0513996 
19730000     1.049884 2.9472805e-05   0.50377299  0.015990648            0   0.48778234    1.5669519    2.0707249    4.1078852 
19735000    1.0493968 -1.2349992e-05   0.49753603 0.0067346268            0   0.49080141    1.5662247    2.0637608    1.2101293 
19740000    1.0082201 -1.8329078e-05   0.57002953  0.019012693            0   0.55101683    1.5047686    2.0747981    0.8078922 
19745000    1.0539532 6.6352302e-06   0.48967106  0.017318303            0   0.47235276    1.5730251    2.0626962    2.5213233 
19750000    1.0141946 3.9330929e-05   0.55022006   0.02062895            0   0.52959111    1.5136854    2.0639055    4.7824593 
19755000    1.0066622 -1.4119808e-05   0.57930629  0.032761738            0   0.54654455    1.5024433    2.0817496    1.1057885 
19760000    1.0012604 -1.4897698e-05   0.57072593  0.031222924            0   0.53950301    1.4943812    2.0651071    1.0353782 
19765000   0.95195244 4.9210657e-05    0.6382907  0.026211469            0   0.61207924     1.420789    2.0590797    5.4605203 
19770000    1.0295753 1.8729527e-05   0.50904371  0.028286658            0   0.48075705    1.5366411    2.0456848    3.3402697 
19775000   0.99964236 3.2703387e-05   0.55571536  0.026704668            0   0.52901069    1.4919662    2.0476816    4.3081397 
19780000    1.0422092 2.620169e-05   0.48327484  0.017740255            0   0.46553459    1.5554972    2.0387721    3.8498329 
19785000   0.96246465 -2.100849e-05   0.59329513  0.004661306            0   0.58863383    1.4364785    2.0297736   0.57766679 
19790000   0.99910743 -6.8602289e-06   0.53495301  0.039953709            0    0.4949993    1.4911678    2.0261209    1.5519418 
19795000    1.0520329 -1.5220624e-05    0.4679647   0.01925869            0   0.44870601    1.5701591    2.0381238    0.9860743 
19800000   0.99076032 2.0662244e-05   0.56258468 0.0087314966            0   0.55385319    1.4787098    2.0412945    3.4694688 
19805000    1.0196655 -1.3498476e-06   0.51652025 0.0098038255            0   0.50671642    1.5218507     2.038371    1.9450695 
19810000   0.97432879 -4.0899809e-05    0.5750195  0.037302337            0   0.53771716    1.4541857    2.0292052  -0.79778959 
19815000   0.98748621 -5.5841174e-05   0.57004977  0.023232686            0   0.54681709    1.4738232    2.0438729    -1.815869 
19820000    1.0131284 -1.8642297e-05   0.55091355  0.013027812            0   0.53788574    1.5120941    2.0630077   0.77445205 
19825000    1.0238849 2.5932365e-05     0.530206  0.013376774            0   0.51682923    1.5281483    2.0583543    3.8507994 
19830000    1.0294943 -7.6305609e-06   0.52874457  0.016845997            0   0.51189857    1.5365202    2.0652648    1.5378404 
19835000    1.0255407 -6.4453103e-05   0.52352836  0.013579805            0   0.50994856    1.5306195    2.0541479   -2.4008506 
19840000    1.0029302 -6.2342516e-05   0.55769142 0.0067050577            0   0.55098636    1.4968733    2.0545648   -2.2545499 
19845000      0.98138 -2.8638731e-05   0.58926874 0.0064212136            0   0.58284753    1.4647097    2.0539784  0.074469279 
19850000    1.0100314 -5.2922998e-06   0.55448226  0.005993868            0   0.54848839    1.5074718    2.0619541    1.6961503 
19855000    1.0319218 -7.2862517e-06   0.51708587  0.021138691            0   0.49594718    1.5401434    2.0572292    1.5536035 
19860000   0.99293458 2.9499259e-05   0.56955766  0.016875515            0   0.55268214    1.4819549    2.0515125    4.0905013 
19865000    1.0273753 1.7590844e-05   0.53074757   0.01035664            0   0.52039093    1.5333576    2.0641052    3.2799843 
19870000   0.99678784 1.3647606e-05   0.57529409  0.012968644            0   0.56232544    1.4877059    2.0629999    3.0063225 
19875000   0.98485203 5.0269475e-05   0.57562757   0.01487844            0   0.56074913    1.4698917    2.0455192    5.5201453 
19880000    1.0076164 6.1969481e-05   0.55049679  0.016942778            0   0.53355401    1.5038675    2.0543643    6.3376948 
19885000   0.98036589 1.2707865e-05   0.56470149  0.015775232            0   0.54892626    1.4631961    2.0278976    2.9062652 
19890000    1.0140917 -5.4511856e-05   0.49766485 0.0090344244            0   0.48863043    1.5135319    2.0111968   -1.7566627 
19895000     1.008275 -2.6112737e-05   0.51499482  0.018966316            0    0.4960285    1.5048504    2.0198452   0.21493282 
19900000    1.0104269 1.4287263e-05   0.53416441  0.036465183            0   0.49769923    1.5080622    2.0422266    3.0297622 
19905000   0.97849512 -8.1998465e-05   0.59257428  0.031643371            0   0.56093091     1.460404    2.0529783   -3.6147556 
19910000    1.0138116 -2.1887649e-05   0.53837211 0.0044978671            0   0.53387424    1.5131138    2.0514859   0.53861155 
19915000    1.0001875 1.9193739e-05    0.5647781  0.018402747            0   0.54637535    1.4927799     2.057558    3.3842292 
19920000   0.97775805 1.4228382e-06   0.58682226  0.023085606            0   0.56373666    1.4593039    2.0461262    2.1444727 
19925000   0.98218972 4.3097579e-05   0.57320546  0.039538608            0   0.53366685    1.4659182    2.0391236    5.0180283 
19930000    1.0068849 -1.50342e-05   0.53238033  0.057360095            0   0.47502024    1.5027757    2.0351561    0.9959922 
19935000    1.0248052 -2.9530537e-05   0.52182201  0.028364392            0   0.49345762    1.5295218    2.0513438  0.010193065 
19940000    1.0395179 -1.8437999e-05   0.50621687  0.014941541            0   0.49127533    1.5514805    2.0576974   0.78326291 
19945000    1.0434127 8.3881756e-06   0.49840671  0.043169079            0   0.45523763    1.5572935    2.0557002    2.6354909 
19950000   0.99908309 7.1166887e-05   0.56996613  0.036075882            0   0.53389025    1.4911315    2.0610976    6.9801529 
19955000    1.0027666 3.6609026e-05   0.54774257  0.020901794            0   0.52684077    1.4966292    2.0443717    4.5747876 
19960000   0.99785946 -3.8308524e-05   0.55902972  0.037340689            0   0.52168903    1.4893052     2.048335  -0.59955019 
19965000    1.0494435 -4.8097863e-05   0.49006679  0.029223815            0   0.46084298    1.5662944    2.0563612   -1.2681631 
19970000   0.98631515 -4.1654584e-05   0.59482131  0.039492357            0   0.55532895    1.4720754    2.0668967  -0.81226816 
19975000    1.0217352 3.0612331e-05    0.5308731  0.022629876            0   0.50824322    1.5249398    2.0558129    4.1717372 
19980000   0.99411682 1.5545164e-05    0.5600937  0.017844751            0   0.54224895    1.4837194    2.0438131    3.1182948 
19985000   0.95802512 -4.3916161e-05   0.60259811  0.021666838            0   0.58093127    1.4298525    2.0324506   -1.0030344 
19990000     1.005772 -6.207403e-05   0.52291711  0.035609964            0   0.48730714    1.5011147    2.0240318   -2.2665251 
19995000   0.94673974 -5.1920596e-05   0.60301605   0.02383888            0   0.57917717    1.4130091    2.0160251   -1.5727265 
20000000    1.0095128 3.5289761e-05   0.51921496  0.029115549            0   0.49009941    1.5066979    2.0259128    4.4651412 
Loop time of 575.105 on 1 procs for 20000000 steps with 200 atoms

Performance: 30046.710 tau/day, 34776.285 timesteps/s
99.4% CPU use with 1 MPI tasks x no OpenMP threads

MPI task timing breakdown:
Section |  min time  |  avg time  |  max time  |%varavg| %total
---------------------------------------------------------------
Pair    | 19.102     | 19.102     | 19.102     |   0.0 |  3.32
Bond    | 73.703     | 73.703     | 73.703     |   0.0 | 12.82
Neigh   | 85.459     | 85.459     | 85.459     |   0.0 | 14.86
Comm    | 200.29     | 200.29     | 200.29     |   0.0 | 34.83
Output  | 1.0493     | 1.0493     | 1.0493     |   0.0 |  0.18
Modify  | 182.45     | 182.45     | 182.45     |   0.0 | 31.72
Other   |            | 13.06      |            |       |  2.27

Nlocal:        200.000 ave         200 max         200 min
Histogram: 1 0 0 0 0 0 0 0 0 0
Nghost:        0.00000 ave           0 max           0 min
Histogram: 1 0 0 0 0 0 0 0 0 0
Neighs:        81.0000 ave          81 max          81 min
Histogram: 1 0 0 0 0 0 0 0 0 0

Total # of neighbors = 81
Ave neighs/atom = 0.405
Ave special neighs/atom = 5.9400000
Neighbor list builds = 4311
Dangerous builds = 0
write_restart restart.equil
System init for write_restart ...
WARNING: Communication cutoff 1.4200000000000002 is shorter than a bond length based estimate of 1.8. This may lead to errors. (../comm.cpp:667)
#--------------End of Input file ------------------
Total wall time: 0:09:35
