LAMMPS Description

60 atoms
59 bonds
0 angles
0 dihedrals
0 impropers

1 atom types
1 bond types
0 angle types
0 dihedral types
0 improper types

-80 80 xlo xhi
-80 80 ylo yhi
-80 80 zlo zhi

Masses

1 1.0

Atoms

1 1 1 -0 0 0 30 
2 1 1 -0 0 0 29 
3 1 1 -0 0 0 28 
4 1 1 -0 0 0 27 
5 1 1 -0 0 0 26 
6 1 1 -0 0 0 25 
7 1 1 -0 0 0 24 
8 1 1 -0 0 0 23 
9 1 1 -0 0 0 22 
10 1 1 -0 0 0 21 
11 1 1 -0 0 0 20 
12 1 1 -0 0 0 19 
13 1 1 -0 0 0 18 
14 1 1 -0 0 0 17 
15 1 1 -0 0 0 16 
16 1 1 -0 0 0 15 
17 1 1 -0 0 0 14 
18 1 1 -0 0 0 13 
19 1 1 -0 0 0 12 
20 1 1 -0 0 0 11 
21 1 1 -0 0 0 10 
22 1 1 -0 0 0 9 
23 1 1 -0 0 0 8 
24 1 1 -0 0 0 7 
25 1 1 -0 0 0 6 
26 1 1 -0 0 0 5 
27 1 1 -0 0 0 4 
28 1 1 -0 0 0 3 
29 1 1 -0 0 0 2 
30 1 1 -0 0 0 1 
31 1 1 -0 0 0 0 
32 1 1 -0 0 0 -1 
33 1 1 -0 0 0 -2 
34 1 1 -0 0 0 -3 
35 1 1 -0 0 0 -4 
36 1 1 -0 0 0 -5 
37 1 1 -0 0 0 -6 
38 1 1 -0 0 0 -7 
39 1 1 -0 0 0 -8 
40 1 1 -0 0 0 -9 
41 1 1 -0 0 0 -10 
42 1 1 -0 0 0 -11 
43 1 1 -0 0 0 -12 
44 1 1 -0 0 0 -13 
45 1 1 -0 0 0 -14 
46 1 1 -0 0 0 -15 
47 1 1 -0 0 0 -16 
48 1 1 -0 0 0 -17 
49 1 1 -0 0 0 -18 
50 1 1 -0 0 0 -19 
51 1 1 -0 0 0 -20 
52 1 1 -0 0 0 -21 
53 1 1 -0 0 0 -22 
54 1 1 -0 0 0 -23 
55 1 1 -0 0 0 -24 
56 1 1 -0 0 0 -25 
57 1 1 -0 0 0 -26 
58 1 1 -0 0 0 -27 
59 1 1 -0 0 0 -28 
60 1 1 -0 0 0 -29 

Bonds

1 1 1 2
2 1 2 3
3 1 3 4
4 1 4 5
5 1 5 6
6 1 6 7
7 1 7 8
8 1 8 9
9 1 9 10
10 1 10 11
11 1 11 12
12 1 12 13
13 1 13 14
14 1 14 15
15 1 15 16
16 1 16 17
17 1 17 18
18 1 18 19
19 1 19 20
20 1 20 21
21 1 21 22
22 1 22 23
23 1 23 24
24 1 24 25
25 1 25 26
26 1 26 27
27 1 27 28
28 1 28 29
29 1 29 30
30 1 30 31
31 1 31 32
32 1 32 33
33 1 33 34
34 1 34 35
35 1 35 36
36 1 36 37
37 1 37 38
38 1 38 39
39 1 39 40
40 1 40 41
41 1 41 42
42 1 42 43
43 1 43 44
44 1 44 45
45 1 45 46
46 1 46 47
47 1 47 48
48 1 48 49
49 1 49 50
50 1 50 51
51 1 51 52
52 1 52 53
53 1 53 54
54 1 54 55
55 1 55 56
56 1 56 57
57 1 57 58
58 1 58 59
59 1 59 60
