LAMMPS Description

80 atoms
79 bonds
0 angles
0 dihedrals
0 impropers

1 atom types
1 bond types
0 angle types
0 dihedral types
0 improper types

-80 80 xlo xhi
-80 80 ylo yhi
-80 80 zlo zhi

Masses

1 1.0

Atoms

1 1 1 -0 0 0 40 
2 1 1 -0 0 0 39 
3 1 1 -0 0 0 38 
4 1 1 -0 0 0 37 
5 1 1 -0 0 0 36 
6 1 1 -0 0 0 35 
7 1 1 -0 0 0 34 
8 1 1 -0 0 0 33 
9 1 1 -0 0 0 32 
10 1 1 -0 0 0 31 
11 1 1 -0 0 0 30 
12 1 1 -0 0 0 29 
13 1 1 -0 0 0 28 
14 1 1 -0 0 0 27 
15 1 1 -0 0 0 26 
16 1 1 -0 0 0 25 
17 1 1 -0 0 0 24 
18 1 1 -0 0 0 23 
19 1 1 -0 0 0 22 
20 1 1 -0 0 0 21 
21 1 1 -0 0 0 20 
22 1 1 -0 0 0 19 
23 1 1 -0 0 0 18 
24 1 1 -0 0 0 17 
25 1 1 -0 0 0 16 
26 1 1 -0 0 0 15 
27 1 1 -0 0 0 14 
28 1 1 -0 0 0 13 
29 1 1 -0 0 0 12 
30 1 1 -0 0 0 11 
31 1 1 -0 0 0 10 
32 1 1 -0 0 0 9 
33 1 1 -0 0 0 8 
34 1 1 -0 0 0 7 
35 1 1 -0 0 0 6 
36 1 1 -0 0 0 5 
37 1 1 -0 0 0 4 
38 1 1 -0 0 0 3 
39 1 1 -0 0 0 2 
40 1 1 -0 0 0 1 
41 1 1 -0 0 0 0 
42 1 1 -0 0 0 -1 
43 1 1 -0 0 0 -2 
44 1 1 -0 0 0 -3 
45 1 1 -0 0 0 -4 
46 1 1 -0 0 0 -5 
47 1 1 -0 0 0 -6 
48 1 1 -0 0 0 -7 
49 1 1 -0 0 0 -8 
50 1 1 -0 0 0 -9 
51 1 1 -0 0 0 -10 
52 1 1 -0 0 0 -11 
53 1 1 -0 0 0 -12 
54 1 1 -0 0 0 -13 
55 1 1 -0 0 0 -14 
56 1 1 -0 0 0 -15 
57 1 1 -0 0 0 -16 
58 1 1 -0 0 0 -17 
59 1 1 -0 0 0 -18 
60 1 1 -0 0 0 -19 
61 1 1 -0 0 0 -20 
62 1 1 -0 0 0 -21 
63 1 1 -0 0 0 -22 
64 1 1 -0 0 0 -23 
65 1 1 -0 0 0 -24 
66 1 1 -0 0 0 -25 
67 1 1 -0 0 0 -26 
68 1 1 -0 0 0 -27 
69 1 1 -0 0 0 -28 
70 1 1 -0 0 0 -29 
71 1 1 -0 0 0 -30 
72 1 1 -0 0 0 -31 
73 1 1 -0 0 0 -32 
74 1 1 -0 0 0 -33 
75 1 1 -0 0 0 -34 
76 1 1 -0 0 0 -35 
77 1 1 -0 0 0 -36 
78 1 1 -0 0 0 -37 
79 1 1 -0 0 0 -38 
80 1 1 -0 0 0 -39 

Bonds

1 1 1 2
2 1 2 3
3 1 3 4
4 1 4 5
5 1 5 6
6 1 6 7
7 1 7 8
8 1 8 9
9 1 9 10
10 1 10 11
11 1 11 12
12 1 12 13
13 1 13 14
14 1 14 15
15 1 15 16
16 1 16 17
17 1 17 18
18 1 18 19
19 1 19 20
20 1 20 21
21 1 21 22
22 1 22 23
23 1 23 24
24 1 24 25
25 1 25 26
26 1 26 27
27 1 27 28
28 1 28 29
29 1 29 30
30 1 30 31
31 1 31 32
32 1 32 33
33 1 33 34
34 1 34 35
35 1 35 36
36 1 36 37
37 1 37 38
38 1 38 39
39 1 39 40
40 1 40 41
41 1 41 42
42 1 42 43
43 1 43 44
44 1 44 45
45 1 45 46
46 1 46 47
47 1 47 48
48 1 48 49
49 1 49 50
50 1 50 51
51 1 51 52
52 1 52 53
53 1 53 54
54 1 54 55
55 1 55 56
56 1 56 57
57 1 57 58
58 1 58 59
59 1 59 60
60 1 60 61
61 1 61 62
62 1 62 63
63 1 63 64
64 1 64 65
65 1 65 66
66 1 66 67
67 1 67 68
68 1 68 69
69 1 69 70
70 1 70 71
71 1 71 72
72 1 72 73
73 1 73 74
74 1 74 75
75 1 75 76
76 1 76 77
77 1 77 78
78 1 78 79
79 1 79 80
