LAMMPS (29 Oct 2020)
###################### polyelectrolyte complexation ######################
clear

#Initialization
#------------------------------------
units				lj
dimension			3
atom_style			full
boundary			p p p

#Atom Definition
#-------------------------------------
read_data			data.complexation
Reading data file ...
  orthogonal box = (-80.000000 -80.000000 -80.000000) to (80.000000 80.000000 80.000000)
  1 by 1 by 1 MPI processor grid
  reading atoms ...
  80 atoms
  scanning bonds ...
  1 = max bonds/atom
  reading bonds ...
  79 bonds
Finding 1-2 1-3 1-4 neighbors ...
  special bond factors lj:    0.0      0.0      0.0     
  special bond factors coul:  0.0      0.0      0.0     
     2 = max # of 1-2 neighbors
     2 = max # of 1-3 neighbors
     4 = max # of 1-4 neighbors
     6 = max # of special neighbors
  special bonds CPU = 0.000 seconds
  read_data CPU = 0.002 seconds

#Force definition
#----------------------------------------------
#Bond definition
bond_style			harmonic
bond_coeff			1 5000 1
#Pair definition
special_bonds	lj 0 1 1
Finding 1-2 1-3 1-4 neighbors ...
  special bond factors lj:    0.0      1.0      1.0     
  special bond factors coul:  0.0      0.0      0.0     
     2 = max # of 1-2 neighbors
     2 = max # of 1-3 neighbors
     4 = max # of 1-4 neighbors
     6 = max # of special neighbors
  special bonds CPU = 0.000 seconds
pair_style		 lj/cut 1.12
pair_modify 		 shift yes
pair_coeff	1 1 1 1 1.12

#Timestep etc
#--------------------------------------------
timestep		1e-05
run_style		verlet
velocity		all	create	1	11

#Fix
#---------------------------------------
group polymers type 1
80 atoms in group polymers
fix 1 all nve
fix 2 all langevin 1	1	10	11
fix 3 polymers recenter INIT INIT INIT units box

#Dump
#------------------------------------------------
compute  1 all gyration
variable  myRg2 equal c_1
variable  i equal step
fix  mythermofile all print 5000 "$i ${myRg2}" file radius_of_gyration.dat screen no

thermo_style		 custom step temp press pe evdwl ecoul ebond ke etotal enthalpy
thermo 	5000
dump	3 all custom 5000 dump.lammpstrj id mol type xu yu zu
run		20000000
Neighbor list info ...
  update every 1 steps, delay 10 steps, check yes
  max neighbors/atom: 2000, page size: 100000
  master list distance cutoff = 1.42
  ghost atom cutoff = 1.42
  binsize = 0.71, bins = 226 226 226
  1 neighbor lists, perpetual/occasional/extra = 1 0 0
  (1) pair lj/cut, perpetual
      attributes: half, newton on
      pair build: half/bin/newton
      stencil: half/bin/3d/newton
      bin: standard
WARNING: Communication cutoff 1.4200000000000002 is shorter than a bond length based estimate of 1.8. This may lead to errors. (../comm.cpp:667)
Per MPI rank memory allocation (min/avg/max) = 54.71 | 54.71 | 54.71 Mbytes
Step Temp Press PotEng E_vdwl E_coul E_bond KinEng TotEng Enthalpy 
       0            1 1.9287109e-05            0            0            0            0      1.48125      1.48125      2.46875 
    5000   0.82011096 -0.00029658078   0.26447295            0            0   0.26447295    1.2147894    1.4792623   -13.705674 
   10000   0.48552573 -0.00066551745   0.75002155            0            0   0.75002155   0.71918499    1.4692065   -32.605287 
   15000   0.73189271 -0.00030734969   0.40867199            0            0   0.40867199    1.0841161    1.4927881   -14.243516 
   20000   0.79724518 -6.2552374e-05   0.30409577            0            0   0.30409577    1.1809194    1.4850152   -1.7176664 
   25000   0.72195747 -0.00037074753   0.41303014            0            0   0.41303014    1.0693995    1.4824296   -17.499844 
   30000   0.67944192 -0.00046072434   0.47936558            0            0   0.47936558    1.0064233    1.4857889   -22.103297 
   35000   0.85048031 2.3794964e-06    0.2415295            0            0    0.2415295     1.259774    1.5013035    1.6231337 
   40000   0.86560158 2.9677044e-05   0.26190261            0            0   0.26190261    1.2821723    1.5440749    3.0635396 
   45000   0.72643669 -0.0003587155   0.44466224            0            0   0.44466224    1.0760344    1.5206966   -16.845537 
   50000   0.80842117 -0.00030403732   0.35016033            0            0   0.35016033    1.1974739    1.5476342   -14.019077 
   55000   0.86281048 9.7841338e-05   0.26720524            0            0   0.26720524     1.278038    1.5452433    6.5547198 
   60000    0.8830596 9.8470512e-05   0.25488022            0            0   0.25488022     1.308032    1.5629122    6.6046025 
   65000   0.86238361 -0.00024118509   0.32392759            0            0   0.32392759    1.2774057    1.6013333   -10.747343 
   70000   0.86866309 -0.00016191995   0.32565607            0            0   0.32565607    1.2867072    1.6123633   -6.6779382 
   75000   0.90247701 0.00014414577   0.27257688            0            0   0.27257688    1.3367941    1.6093709    8.9896343 
   80000   0.85321335 0.00010159868   0.34201583            0            0   0.34201583    1.2638223    1.6058381    6.8076905 
   85000   0.90074436 -8.9169296e-05   0.30693554            0            0   0.30693554    1.3342276    1.6411631   -2.9243048 
   90000   0.85770535 -0.00023512645   0.36907612            0            0   0.36907612    1.2704761    1.6395522   -10.398922 
   95000   0.89569877 0.0001427721   0.27413107            0            0   0.27413107    1.3267538    1.6008849    8.9108163 
  100000   0.86798284 0.00017294929   0.30896397            0            0   0.30896397    1.2856996    1.5946635    10.449667 
  105000   0.83263675 -0.00019736193   0.36349719            0            0   0.36349719    1.2333432    1.5968404   -8.5080904 
  110000   0.89457339 -0.00015151438   0.26954583            0            0   0.26954583    1.3250868    1.5946327   -6.1629037 
  115000   0.92686944 0.00023613165    0.2665392            0            0    0.2665392    1.3729254    1.6394646    13.729405 
  120000   0.90574649 -6.8632869e-05   0.31558859            0            0   0.31558859     1.341637    1.6572256   -1.8567773 
  125000   0.82709572 -0.00019738104   0.41883154            0            0   0.41883154    1.2251355    1.6439671   -8.4619422 
  130000   0.89908136 9.0873789e-05   0.30727173            0            0   0.30727173    1.3317643     1.639036     6.291774 
  135000   0.84133605 9.0580303e-05   0.36389107            0            0   0.36389107     1.246229    1.6101201    6.2478316 
  140000   0.84998327 -0.00017292762   0.36553158            0            0   0.36553158    1.2590377    1.6245693    -7.229325 
  145000   0.85857377 4.0265783e-05   0.34668681            0            0   0.34668681    1.2717624    1.6184492    3.6800573 
  150000   0.88565968 5.1708802e-05   0.27262049            0            0   0.27262049    1.3118834    1.5845039    4.2319946 
  155000   0.87027633 -1.8924639e-05   0.30126385            0            0   0.30126385    1.2890968    1.5903607   0.62141914 
  160000   0.76562414 8.3649321e-06   0.45435644            0            0   0.45435644    1.1340808    1.5884372    2.0167217 
  165000   0.88940337 -1.5633559e-05   0.26476287            0            0   0.26476287    1.3174287    1.5821916   0.78175339 
  170000   0.82531205 1.7415527e-05   0.36082743            0            0   0.36082743    1.2224935    1.5833209    2.4749959 
  175000   0.82162344 8.7006727e-05   0.41170049            0            0   0.41170049    1.2170297    1.6287302    6.0834746 
  180000   0.85608913 -0.00013397274   0.38892825            0            0   0.38892825     1.268082    1.6570103    -5.202394 
  185000   0.88882458 0.00010676134   0.35547153            0            0   0.35547153    1.3165714     1.672043    7.1382238 
  190000   0.95358924 6.9422076e-05   0.26745422            0            0   0.26745422    1.4125041    1.6799583    5.2343686 
  195000   0.88568865 -0.00014444813   0.33955323            0            0   0.33955323    1.3119263    1.6514795   -5.7442648 
  200000   0.87971078 8.4666161e-05   0.32844005            0            0   0.32844005    1.3030716    1.6315116    5.9664191 
  205000   0.83103529 6.0559059e-05   0.36851281            0            0   0.36851281     1.230971    1.5994838    4.7001077 
  210000   0.77225357 -0.0001237964   0.43420834            0            0   0.43420834    1.1439006    1.5781089    -4.760267 
  215000   0.82753536 -4.1031981e-05   0.33983367            0            0   0.33983367    1.2257867    1.5656204  -0.53521698 
  220000   0.84373739 0.00015328016   0.33614984            0            0   0.33614984     1.249786    1.5859359    9.4338802 
  225000   0.88682986 -0.00012980547   0.27542201            0            0   0.27542201    1.3136167    1.5890387   -5.0570012 
  230000   0.87763041 -2.4869569e-05   0.30703206            0            0   0.30703206      1.29999    1.6070221   0.33370016 
  235000   0.83736865 0.00018937894   0.34120086            0            0   0.34120086    1.2403523    1.5815532    11.277755 
  240000   0.78450831 -0.00018512443   0.38113676            0            0   0.38113676    1.1620529    1.5431897   -7.9351811 
  245000   0.80608813 9.3278128e-05   0.31618982            0            0   0.31618982     1.194018    1.5102079     6.286048 
  250000   0.77798732 -6.2832446e-06   0.35069205            0            0   0.35069205    1.1523937    1.5030858    1.1813837 
  255000   0.76734125 -8.4184169e-05    0.3610456            0            0    0.3610456    1.1366242    1.4976698   -2.8125596 
  260000   0.76799963 9.2881391e-05   0.35774581            0            0   0.35774581    1.1375994    1.4953453    6.2508724 
  265000   0.75105522 -1.4172872e-05   0.39634687            0            0   0.39634687    1.1125005    1.5088474   0.78319635 
  270000   0.75977662 4.8426529e-06   0.37726471            0            0   0.37726471    1.1254191    1.5026838    1.7506277 
  275000   0.79091675 6.544188e-05   0.36661669            0            0   0.36661669    1.1715454    1.5381621    4.8887864 
  280000   0.78113742 -0.00013780549   0.36737986            0            0   0.36737986    1.1570598    1.5244397   -5.5312014 
  285000   0.76121968 6.848695e-05   0.43019854            0            0   0.43019854    1.1275567    1.5577552     5.064287 
  290000   0.78460022 -7.4908035e-05   0.41722075            0            0   0.41722075    1.1621891    1.5794098   -2.2558816 
  295000   0.79225398 7.2445249e-05    0.3881383            0            0    0.3881383    1.1735262    1.5616645    5.2708613 
  300000   0.84303923 -7.0365704e-06   0.30523487            0            0   0.30523487    1.2487519    1.5539867    1.1937143 
  305000   0.77696395 0.00010255939    0.3981116            0            0    0.3981116    1.1508778    1.5489895    6.8000302 
  310000   0.78595401 1.1334939e-05   0.37296427 0.0013947569            0   0.37156951    1.1641944    1.5371586    2.1175075 
  315000    0.7851124 -1.6599725e-05   0.38363857 0.0056680923            0   0.37797048    1.1629477    1.5465863   0.69668036 
  320000   0.77314109 8.2401265e-05   0.41528328 0.0041101374            0   0.41117314    1.1452152    1.5604985    5.7794433 
  325000   0.80664651 -6.0971412e-05   0.37780716 0.0031333498            0   0.37467381    1.1948451    1.5726523    -1.549084 
  330000   0.79517608 -6.0409343e-05   0.38010036 0.00026028585            0   0.37984007    1.1778546    1.5579549   -1.5350034 
  335000   0.79162725 -2.5074207e-06   0.35029414 1.0897746e-05            0   0.35028324    1.1725979     1.522892    1.3945121 
  340000   0.74520997 0.00010395351   0.39548116            0            0   0.39548116    1.1038423    1.4993234    6.8217431 
  345000   0.72678514 -8.6455204e-05   0.46886718 0.00075875584            0   0.46810843    1.0765505    1.5454177   -2.8810888 
  350000   0.79747745 0.00015033356   0.38279931 0.00055537373            0   0.38224394    1.1812635    1.5640628    9.2611409 
  355000   0.74646246 -6.775181e-05   0.47349405 0.00029029032            0   0.47320376    1.1056975    1.5791916   -1.8897011 
  360000   0.80655128 -0.00013020036   0.40794087 0.0012819775            0   0.40665889    1.1947041    1.6026449   -5.0636136 
  365000   0.78322629 0.00014659708   0.44843579 0.0017251208            0   0.44671067    1.1601539    1.6085897    9.1143604 
  370000   0.78206016 -5.4849822e-05   0.45917061 0.0017733001            0   0.45739731    1.1584266    1.6175972   -1.1907136 
  375000   0.87134792 2.914467e-05   0.35778042 0.00068406167            0   0.35709636    1.2906841    1.6484645    3.1406717 
  380000   0.84903667 4.2550504e-05   0.40259248            0            0   0.40259248    1.2576356    1.6602281    3.8388139 
  385000   0.83084433 -0.00015549134   0.42237833            0            0   0.42237833    1.2306882    1.6530665     -6.30809 
  390000   0.85698395 0.0001848301   0.42579171 0.00012112623            0   0.42567058    1.2694075    1.6951992      11.1585 
  395000   0.88895757 -8.7834417e-05   0.39730009 0.0013078879            0   0.39599221    1.3167684    1.7140685   -2.7830537 
  400000   0.88571158 5.2042968e-05   0.41109975 0.00084631315            0   0.41025343    1.3119603      1.72306      4.38766 
  405000   0.84659866 3.4562269e-05   0.47970489 0.00028647365            0   0.47941842    1.2540243    1.7337292    3.5033173 
  410000   0.82725651 -6.8668384e-05    0.5131446 8.5117838e-05            0   0.51305949    1.2253737    1.7385183    -1.777303 
  415000   0.88276136 5.5836069e-05   0.44714607            0            0   0.44714607    1.3075903    1.7547363    4.6135431 
  420000   0.87241084 -6.7326922e-05   0.44931557            0            0   0.44931557    1.2922586    1.7415741   -1.7055643 
  425000   0.82989736 -8.9905147e-05   0.49811094 0.00018322057            0   0.49792772    1.2292855    1.7273964   -2.8757471 
  430000   0.84953057 3.3667666e-05   0.44473631 0.00070597082            0   0.44403034    1.2583672    1.7031035    3.4268879 
  435000   0.85763064 -5.6225306e-05   0.43952613 0.0030338894            0   0.43649224    1.2703654    1.7098915   -1.1688442 
  440000   0.88909589 -2.6641815e-05   0.39186855 0.00081608317            0   0.39105247    1.3169733    1.7088418   0.34478091 
  445000   0.91069379 1.3587065e-05   0.33833627 0.00049384725            0   0.33784242    1.3489652    1.6873014    2.3829592 
  450000   0.84445054 -0.00012744015   0.45409388 0.0013221782            0    0.4527717    1.2508424    1.7049362   -4.8199993 
  455000   0.84798659 0.00010162161   0.42519439 0.0018352564            0   0.42335913    1.2560801    1.6812745    6.8843007 
  460000   0.92321838 -1.8310756e-05   0.32332794 0.0013289675            0   0.32199897    1.3675172    1.6908452   0.75333444 
  465000    0.8846416 -1.901875e-06   0.35264481 0.0036561652            0   0.34898865    1.3103754    1.6630202    1.5656442 
  470000   0.85580832 4.2689593e-05   0.40159759 0.0069506464            0   0.39464694    1.2676661    1.6692637    3.8549708 
  475000   0.80133656 2.346289e-05   0.45726805  0.003990292            0   0.45327776    1.1869798    1.6442478    2.8455478 
  480000   0.78090464 -0.00012160161   0.48964384 0.0040618107            0   0.48558203     1.156715    1.6463588   -4.5796438 
  485000   0.81365206 0.00018512278   0.42734645 0.0023551908            0   0.42499126    1.2052221    1.6325686    11.110855 
  490000   0.80024635 -0.00012747639   0.44414504 0.00016148193            0   0.44398355    1.1853649    1.6295099   -4.8972812 
  495000   0.85516756 0.0001407474   0.35140248 1.0371279e-05            0   0.35139211    1.2667169    1.6181194    8.8243865 
  500000   0.87399297 3.9533756e-05   0.34598794 1.2409241e-05            0   0.34597553    1.2946021      1.64059    3.6647183 
  505000   0.80794475 -0.0001582593   0.43327429            0            0   0.43327429    1.1967682    1.6300425   -6.4728336 
  510000    0.7413966 7.1635633e-05   0.53687929            0            0   0.53687929    1.0981937     1.635073    5.3028174 
  515000   0.79928938 -9.0456554e-05   0.46686166            0            0   0.46686166    1.1839474    1.6508091   -2.9805665 
  520000   0.84820917 0.00012881622   0.41582048            0            0   0.41582048    1.2564098    1.6722303    8.2676208 
  525000   0.81577678 6.7703707e-05   0.45372541            0            0   0.45372541    1.2083694    1.6620948    5.1285246 
  530000    0.8767903 -4.8216895e-05   0.37483647            0            0   0.37483647    1.2987456    1.6735821  -0.79512292 
  535000   0.80040068 -4.4325436e-05   0.48164042            0            0   0.48164042    1.1855935    1.6672339  -0.60222839 
  540000   0.85265862 -0.00010951541   0.43419173            0            0   0.43419173    1.2630006    1.6971923   -3.9099969 
  545000   0.81375465 1.8001588e-06   0.49532294            0            0   0.49532294    1.2053741     1.700697    1.7928651 
  550000   0.88026323 -4.1115727e-05   0.40963011 0.0003056972            0   0.40932442    1.3038899      1.71352  -0.39160522 
  555000   0.83124483 -1.9018426e-05   0.47881837 0.0013227565            0   0.47749562    1.2312814    1.7100998    0.7363564 
  560000   0.85140789 4.1439477e-05   0.45674927  0.002484981            0   0.45426429    1.2611479    1.7178972    3.8395984 
  565000   0.82801808 -0.00014993925   0.48083995 0.0041695622            0   0.47667039    1.2265018    1.7073417   -5.9695477 
  570000   0.90089906 8.1733492e-06   0.34430078 0.0026016469            0   0.34169914    1.3344567    1.6787575     2.097233 
  575000   0.85447913 6.1317777e-05   0.39464567 0.00027817806            0   0.39436749    1.2656972    1.6603429    4.7998131 
  580000   0.82729957 -5.7181184e-05   0.42989578            0            0   0.42989578    1.2254375    1.6553333   -1.2723433 
  585000   0.77270274 9.4953302e-05   0.50005318            0            0   0.50005318    1.1445659    1.6446191    6.5062282 
  590000   0.87599914 -8.573474e-05   0.37472661            0            0   0.37472661    1.2975737    1.6723003   -2.7173183 
  595000    0.8258116 1.9032298e-06   0.48818312            0            0   0.48818312    1.2232334    1.7114166    1.8088619 
  600000     0.899455 -5.1392431e-05   0.34741755            0            0   0.34741755    1.3323177    1.6797353  -0.95155719 
  605000   0.87033042 5.1994169e-05   0.39820266            0            0   0.39820266    1.2891769    1.6873796     4.349481 
  610000   0.87765965 -1.6608962e-05   0.39128902            0            0   0.39128902    1.3000334    1.6913224   0.84094353 
  615000   0.91143874 4.4040978e-05   0.32410013 1.4479101e-05            0   0.32408565    1.3500686    1.6741688    3.9290669 
  620000   0.79781545 2.3367002e-05   0.50366422 0.0038068687            0   0.49985736    1.1817641    1.6854284    2.8818189 
  625000   0.81858737 -2.7175228e-05   0.46831824 0.0075717879            0   0.46074646    1.2125325    1.6808508   0.28947911 
  630000   0.85725194 6.1609264e-05   0.41039819  0.010714795            0    0.3996834    1.2698044    1.6802026    4.8345969 
  635000   0.84850046 -2.0340535e-05   0.43918497 0.0068920805            0   0.43229289    1.2568413    1.6960263   0.65459089 
  640000    0.8733988 1.3770148e-05   0.42114416 0.0017465927            0   0.41939757     1.293722    1.7148661    2.4198977 
  645000   0.85823511 -7.3504953e-06   0.44994857 0.00039267802            0   0.44955589    1.2712608    1.7212093     1.344864 
  650000   0.82095408 -2.3726558e-06   0.51337698 5.6714662e-05            0   0.51332026    1.2160382    1.7294152    1.6079352 
  655000   0.84078907 4.0109841e-05   0.47570042 0.00045482947            0   0.47524559    1.2454188    1.7211192    3.7747431 
  660000   0.90153066 -5.8076062e-05   0.38644746 0.00091092941            0   0.38553653    1.3353923    1.7218397   -1.2516546 
  665000   0.92253417 3.0803263e-05   0.36635975 0.0019243483            0    0.3644354    1.3665037    1.7328635    3.3099906 
  670000    0.8874148 0.00010723699   0.42884502 0.0022592082            0   0.42658581    1.3144832    1.7433282    7.2338621 
  675000   0.83481159 -8.6411305e-05   0.49448568 0.00072363014            0   0.49376205    1.2365647    1.7310504   -2.6932085 
  680000   0.87561415 -5.5762913e-05   0.48148122            0            0   0.48148122    1.2970035    1.7784847   -1.0765765 
  685000   0.87073289 -2.3639917e-05   0.47114968            0            0   0.47114968    1.2897731    1.7609228   0.55055905 
  690000   0.87370437 0.00019639648   0.45903399 5.1715845e-06            0   0.45902882    1.2941746    1.7532086    11.808708 
  695000    1.0128207 8.4347554e-05   0.27933156 0.0030645935            0   0.27626697    1.5002407    1.7795723    6.0981671 
  700000   0.92813714 -0.00012070314    0.3895206 0.0066625857            0   0.38285802    1.3748031    1.7643237   -4.4156769 
  705000   0.91642739 7.6182416e-06   0.37907676 0.0076865556            0    0.3713902    1.3574581    1.7365348    2.1265888 
  710000   0.84447746 -9.3570293e-05   0.46583756 0.0015473873            0   0.46429017    1.2508822    1.7167198   -3.0740792 
  715000   0.88458265 9.7127559e-05   0.39515617            0            0   0.39515617    1.3102881    1.7054442    6.6783752 
  720000   0.91697392 -8.1486902e-05   0.35303524 0.00020079255            0   0.35283445    1.3582676    1.7113029   -2.4608265 
  725000    0.8451401 2.6645936e-05   0.46172454 0.0011950003            0   0.46052954    1.2518638    1.7135883    3.0778602 
  730000   0.90938259 5.4128656e-05   0.35976126 0.0028218402            0   0.35693942     1.347023    1.7067842    4.4781714 
  735000   0.84989517 -0.00015937525   0.45276252  0.004743924            0   0.44801859    1.2589072    1.7116697    -6.448343 
  740000    0.8742623 0.00012839222   0.40904387 0.0023265794            0   0.40671729     1.295001    1.7040449    8.2777268 
  745000   0.90259444 -8.3182713e-07   0.37867283 6.666509e-05            0   0.37860617     1.336968    1.7156408    1.6730513 
  750000   0.88473454 -6.6876476e-05   0.39076856            0            0   0.39076856     1.310513    1.7012816    -1.722794 
  755000   0.82552581 7.4475493e-05   0.45276795            0            0   0.45276795    1.2228101    1.6755781    5.4887233 
  760000   0.89275483 -0.00011246393   0.37349922            0            0   0.37349922    1.3223931    1.6958923   -4.0622607 
  765000   0.87026583 0.00012517846   0.39384517            0            0   0.39384517    1.2890813    1.6829264    8.0920634 
  770000   0.85770285 -0.0001045323   0.40062126            0            0   0.40062126    1.2704723    1.6710936   -3.6809601 
  775000   0.81786665 -4.9243492e-05   0.46320536            0            0   0.46320536     1.211465    1.6746703  -0.84659646 
  780000   0.82256578 4.4448746e-05   0.45360439            0            0   0.45360439    1.2184256      1.67203    3.9478057 
  785000   0.86901454 -0.00012382688   0.38175191 0.00029733479            0   0.38145457    1.2872278    1.6689797   -4.6709568 
  790000   0.84506652 1.9699113e-05   0.43940495  0.003739071            0   0.43566587    1.2517548    1.6911597    2.6997543 
  795000   0.90245251 -4.7938161e-05   0.37910725 0.0047246001            0   0.37438265    1.3367578     1.715865   -0.7385688 
  800000   0.97110131 -1.8067407e-05   0.28678016 0.0013632646            0   0.28541689    1.4384438     1.725224   0.80017275 
  805000   0.95144796 2.636447e-05   0.33195382 5.4473179e-06            0   0.33194838    1.4093323    1.7412861     3.091147 
  810000   0.90439132 -4.7980602e-05   0.41316078 2.9544634e-05            0   0.41313124    1.3396296    1.7527904  -0.70381641 
  815000   0.90082231 7.3595329e-05   0.40477788 0.0012578558            0   0.40352003     1.334343    1.7391209    5.5072018 
  820000   0.85722829 4.8168258e-05   0.48751382  0.002248552            0   0.48526527    1.2697694    1.7572832     4.223498 
  825000   0.90098023 2.541239e-05   0.41797762 0.0042943377            0   0.41368328     1.334577    1.7525546     3.053669 
  830000   0.93245497 1.4408185e-05   0.37885499 0.0017364772            0   0.37711852    1.3811989    1.7600539     2.497753 
  835000   0.95995516 -7.5117778e-05   0.34409576 0.0076722106            0   0.33642355    1.4219336    1.7660293   -2.0800009 
  840000   0.98835918 7.5414048e-05    0.3342982  0.014377804            0    0.3199204     1.464007    1.7983052    5.6595045 
  845000   0.90772807 0.00013614582   0.42139735 0.0049883362            0   0.41640902    1.3445722    1.7659696    8.7366356 
  850000   0.88749531 -6.3819756e-05   0.43953313 0.0060687355            0   0.43346439    1.3146024    1.7541356    -1.513436 
  855000   0.87318421 -3.1852959e-05   0.43864331 0.0037135573            0   0.43492975    1.2934041    1.7320474   0.10117594 
  860000   0.90516713 1.7027239e-05   0.39620404 0.00080163359            0   0.39540241    1.3407788    1.7369828    2.6087775 
  865000   0.92664052 -7.178696e-06   0.36969645 0.0034708866            0   0.36622556    1.3725863    1.7422827    1.3747335 
  870000   0.94235657 -4.1577803e-05    0.3451168 0.0041421177            0   0.34097469    1.3958657    1.7409825  -0.38780105 
  875000   0.88157641 0.00012851483   0.41891568 0.0022051567            0   0.41671052    1.3058351    1.7247507      8.30471 
  880000   0.91463336 3.5595349e-06   0.37691547   0.00166995            0   0.37524552    1.3548007    1.7317161    1.9139643 
  885000   0.95113474 -3.7750013e-05   0.32253086 0.0015999401            0   0.32093092    1.4088683    1.7313992   -0.2014015 
  890000   0.91986354 1.8695134e-05   0.38258064 0.0042696843            0   0.37831095    1.3625479    1.7451285    2.7023194 
  895000   0.88815994 -0.00010870375   0.42494827  0.011912681            0   0.41303559    1.3155869    1.7405352    -3.825097 
  900000   0.98177498 7.3047016e-05   0.29874988  0.002613042            0   0.29613684    1.4542542    1.7530041    5.4930113 
  905000   0.90794174 -1.30647e-05   0.41790209 0.00058217407            0   0.41731991    1.3448887    1.7627908    1.0938782 
  910000   0.86906594 -8.0341399e-05   0.47169876 0.0051781808            0   0.46652058    1.2873039    1.7590027   -2.3544769 
  915000   0.91984867 -0.00012267599    0.3870317  0.011524015            0   0.37550768    1.3625258    1.7495575   -4.5314529 
  920000   0.90524259 0.00018166646   0.41256302 0.0072393108            0   0.40532371    1.3408906    1.7534536    11.054776 
  925000   0.88298963 -0.00010359524   0.43112568 0.0093992967            0   0.42172638    1.3079284    1.7390541   -3.5650222 
  930000    0.9173064 0.00013980186   0.39252522 0.0086453772            0   0.38387984    1.3587601    1.7512853    8.9091405 
  935000   0.86963912 1.8764791e-05   0.44279408 0.0083554523            0   0.43443862    1.2881529     1.730947    2.6917043 
  940000   0.96126538 0.00019508248   0.32148736 0.0082079697            0   0.31327939    1.4238743    1.7453617    11.733585 
  945000   0.96433251 -6.7442497e-05   0.31403601 0.0053401261            0   0.30869589    1.4284175    1.7424535   -1.7106023 
  950000   0.95981489 -0.00011768431   0.33708836 0.0050150416            0   0.33207332    1.4217258    1.7588142   -4.2666227 
  955000   0.93873338 8.6173584e-05   0.37861112 0.0040008263            0   0.37461029    1.3904988    1.7691099    6.1811975 
  960000   0.91005989 -6.1088718e-05   0.44386584 0.0036795353            0    0.4401863    1.3480262     1.791892   -1.3358503 
  965000   0.93905671 5.0100817e-05   0.39869862 0.0021051096            0   0.39659351    1.3909778    1.7896764    4.3548382 
  970000   0.90274634 -1.9644797e-05   0.44116702 0.00018760865            0   0.44097942     1.337193      1.77836   0.77254646 
  975000   0.89160262 0.00015124239   0.45743675            0            0   0.45743675    1.3206864    1.7781231    9.5217336 
  980000   0.94319517 5.4668342e-06   0.36365688 0.00074896208            0   0.36290792    1.3971078    1.7607647    2.0406666 
  985000   0.90641937 -7.6490282e-05   0.41905137 0.0023545833            0   0.41669678    1.3426337    1.7616851   -2.1546174 
  990000    0.9126041 0.00013046239   0.37199524 0.0017675328            0    0.3702277    1.3517948    1.7237901    8.4034643 
  995000   0.87926243 -0.00017656272    0.4160936 0.00059997935            0   0.41549362    1.3024075    1.7185011   -7.3215104 
 1000000    0.9334751 -8.6809897e-05   0.31443033 0.0017592024            0   0.31267113      1.38271    1.6971403   -2.7475264 
 1005000   0.91470178 6.5113943e-05    0.3577626 0.0077785456            0   0.34998405     1.354902    1.7126646    5.0464985 
 1010000   0.79638594 -7.8721618e-05   0.53388646  0.028064771            0   0.50582169    1.1796467    1.7135331   -2.3170137 
 1015000   0.82553959 0.00017574517   0.46718466  0.038304931            0   0.42887973    1.2228305    1.6900152    10.688168 
 1020000   0.86139452 -0.00013809333   0.41269155 0.0083291545            0    0.4043624    1.2759406    1.6886322   -5.3817461 
 1025000   0.86671147 -1.5573513e-05   0.42311742   0.01281984            0   0.41029758    1.2838164    1.7069338   0.90956993 
 1030000   0.87781196 1.4936136e-05   0.38953738 0.0047292962            0   0.38480808     1.300259    1.6897963    2.4545265 
 1035000   0.89818038 -1.3616305e-05   0.35524489 0.00093405057            0   0.35431084    1.3304297    1.6856746   0.98851977 
 1040000   0.87031061 4.0138871e-05   0.37760472 0.0031056869            0   0.37449903    1.2891476    1.6667523    3.7218625 
 1045000   0.80944502 -0.00015735966   0.46623837 0.0033782436            0   0.46286013    1.1989904    1.6652288   -6.3915857 
 1050000   0.82875938 4.7606961e-05   0.41534244 0.0041071665            0   0.41123528    1.2275998    1.6429423    4.0804187 
 1055000   0.86991679 -2.7069651e-05   0.32312522 0.0064941017            0   0.31663112    1.2885642    1.6116895   0.22572335 
 1060000   0.84833596 6.4695645e-05   0.34811992  0.010482389            0   0.33763753    1.2565976    1.6047176    4.9171346 
 1065000   0.82826783 0.00011453729   0.42096375  0.018767442            0   0.40219631    1.2268717    1.6478355    7.5121448 
 1070000   0.80564989 4.9816214e-06   0.44388668 0.0073483494            0   0.43653833    1.1933689    1.6372556    1.8923146 
 1075000   0.83744872 -2.4673761e-06   0.43134254 0.0056185673            0   0.42572398    1.2404709    1.6718135    1.5454838 
 1080000   0.79427227 2.4329114e-05   0.49864957 0.0029196642            0   0.49572991    1.1765158    1.6751654     2.920816 
 1085000   0.88594016 5.2216695e-05   0.39076788   0.00246497            0   0.38830291    1.3122989    1.7030667    4.3765615 
 1090000   0.92237211 -0.000106044   0.33918884  0.013218415            0   0.32597042    1.3662637    1.7054525   -3.7240005 
 1095000   0.91799214 3.795739e-05   0.36029882  0.011482831            0   0.34881599    1.3597759    1.7200747    3.6634931 
 1100000   0.93603996 0.00013701515   0.33776203 0.0057727095            0   0.33198932    1.3865092    1.7242712    8.7394467 
 1105000   0.87418641 -9.45025e-05    0.4238536 0.0028466331            0   0.42100697    1.2948886    1.7187422   -3.1197858 
 1110000   0.82563975 0.00020191542   0.51839384 0.00069966426            0   0.51769418    1.2229789    1.7413727    12.079442 
 1115000   0.86474146 -0.0001047776   0.45357035 0.0047614318            0   0.44880892    1.2808983    1.7344686   -3.6301443 
 1120000   0.90845237 5.7750511e-05   0.38222242  0.023828475            0   0.35839395    1.3456451    1.7278675    4.6846936 
 1125000   0.93934313 -3.0968301e-05    0.3452065 0.0075743808            0   0.33763212     1.391402    1.7366085   0.15103152 
 1130000   0.92954914 -1.6570175e-05   0.33940397            0            0   0.33940397    1.3768947    1.7162986   0.86790567 
 1135000   0.93179387 0.00016311744   0.37114147 1.7053915e-05            0   0.37112442    1.3802197    1.7513611    10.102974 
 1140000   0.89948281 -0.00011322912   0.45962586 0.00084513503            0   0.45878073    1.3323589    1.7919848   -4.0053463 
 1145000   0.94428808 4.9922237e-05   0.41304574 0.0032595056            0   0.40978623    1.3987267    1.8117725     4.367791 
 1150000   0.92054856 -0.00011913741   0.48132945  0.012671534            0   0.46865792    1.3635626     1.844892   -4.2549432 
 1155000   0.95705963 8.0729779e-05   0.44599837  0.024258915            0   0.42173945    1.4176446    1.8636429    5.9970076 
 1160000   0.97667501 -2.0296343e-05   0.43172066  0.019104838            0   0.41261582    1.4466999    1.8784205   0.83924776 
 1165000    1.0005521   5.5036e-05   0.39740866 0.0039780564            0    0.3934306    1.4820678    1.8794765    4.6973197 
 1170000   0.97684556 -2.5295378e-05   0.45450941            0            0   0.45450941    1.4469525    1.9014619   0.60633855 
 1175000    1.0569062 -1.0409396e-05   0.33842238 0.00036314506            0   0.33805924    1.5655423    1.9039646    1.3710036 
 1180000   0.98521455 5.4433574e-05   0.40627765 0.0079824964            0   0.39829515     1.459349    1.8656267    4.6526257 
 1185000   0.94173357 -0.00014614712   0.47381998   0.01783152            0   0.45598846    1.3949428    1.8687628   -5.6139695 
 1190000   0.95479895 0.00013910317   0.46066076   0.01887499            0   0.44178577    1.4142959    1.8749567     8.997039 
 1195000   0.95266753 -9.2063311e-05   0.48628806 0.0086035076            0   0.47768455    1.4111388    1.8974268   -2.8162147 
 1200000   0.99371415 -2.1175173e-05   0.43605937 0.0016768317            0   0.43438254    1.4719391    1.9079985   0.82382958 
 1205000    1.0030309 7.6567913e-05    0.4142882 0.00034087464            0   0.41394733    1.4857396    1.9000278    5.8203049 
 1210000   0.96025955 -5.3674662e-05   0.44607412 0.0056908826            0   0.44038324    1.4223845    1.8684586  -0.87968412 
 1215000   0.87707956 2.1284584e-05   0.55064271  0.015331328            0   0.53531138    1.2991741    1.8498168    2.9395875 
 1220000    0.9064251 -7.1181678e-05   0.50564069  0.014219425            0   0.49142127    1.3426422    1.8482829    -1.796219 
 1225000   0.94309698 4.9030476e-05    0.4517839 0.0053393879            0   0.44644451    1.3969624    1.8487463    4.3591067 
 1230000   0.94381738 -8.9309466e-05   0.46069461  0.017739874            0   0.44295474    1.3980295    1.8587241   -2.7139206 
 1235000   0.91173026 5.4243377e-05    0.4965142   0.02327022            0   0.47324398    1.3505005    1.8470146    4.6242755 
 1240000   0.95234118 -4.72002e-05   0.44189158  0.029058141            0   0.41283344    1.4106554     1.852547  -0.56410326 
 1245000   0.95046222 -1.8047963e-05   0.41084549  0.019735817            0   0.39110967    1.4078722    1.8187176   0.89466192 
 1250000   0.94592723 -6.4897347e-05   0.42934318 0.0076740169            0   0.42166916    1.4011547    1.8304979   -1.4922462 
 1255000   0.96982429 -6.2025745e-05   0.42824463  0.027255119            0   0.40098952    1.4365522    1.8647969   -1.3109213 
 1260000    1.0145447 6.9645475e-05   0.38957772  0.023609151            0   0.36596857    1.5027943     1.892372    5.4582204 
 1265000   0.96351258 -6.7812763e-05   0.43885064  0.016763468            0   0.42208717     1.427203    1.8660537   -1.6059598 
 1270000   0.99125098 0.00010207559   0.40173668 0.0059047098            0   0.39583197    1.4682905    1.8700272    7.0962976 
 1275000   0.93729103 7.5042789e-05   0.45573408  0.021523103            0   0.43421098    1.3883623    1.8440964    5.6862872 
 1280000   0.98131486 -1.3714892e-05   0.40527494  0.011140652            0   0.39413429    1.4535726    1.8588476    1.1566451 
 1285000   0.99918351 -3.6301957e-05   0.38931502 0.0015805367            0   0.38773449    1.4800406    1.8693556  0.010695422 
 1290000    1.0129064 0.00016210892   0.38804542 0.0019651234            0    0.3860803    1.5003675     1.888413     10.18839 
 1295000    1.0057277 7.4131925e-06   0.41810666  0.003561798            0   0.41454486    1.4897342    1.9078408    2.2873963 
 1300000   0.99830003 8.3571094e-05   0.43257273  0.003059134            0   0.42951359    1.4787319    1.9113046    6.1901446 
 1305000    1.0488461 -8.5850117e-05   0.36604907  0.011319795            0   0.35472928    1.5536033    1.9196524   -2.4758736 
 1310000    1.0158519 -8.9206234e-05   0.41030882   0.02337509            0   0.38693374    1.5047306    1.9150395   -2.6523197 
 1315000   0.98904369 -3.2751665e-05   0.43827949  0.030387121            0   0.40789237     1.465021    1.9033005   0.22641521 
 1320000   0.90267297 -0.00018081591   0.57486019  0.036084139            0   0.53877605    1.3370843    1.9119445   -7.3458302 
 1325000    1.0077589 4.0922634e-05   0.44385889 0.0036226648            0   0.44023623    1.4927429    1.9366018    4.0318406 
 1330000   0.99127503 -0.00011236759   0.47799613            0            0   0.47799613    1.4683261    1.9463223   -3.8068985 
 1335000    1.0820711 2.7196781e-05     0.346348 0.0017290345            0   0.34461897    1.6028178    1.9491658     3.341641 
 1340000     1.091762 -4.9024123e-05   0.33417641  0.012089268            0   0.32208714    1.6171724    1.9513488  -0.55868628 
 1345000   0.97951139 -0.000145908   0.49668871  0.014712073            0   0.48197663    1.4509012      1.94759   -5.5228994 
 1350000   0.99998633 3.1138265e-05   0.45386844  0.012080137            0    0.4417883    1.4812297    1.9350982    3.5293773 
 1355000    1.0211813 -0.00012845481   0.40702022 0.0043134354            0   0.40270678    1.5126248    1.9196451   -4.6572414 
 1360000   0.89398354 9.3649497e-05   0.55956054 0.0022537055            0   0.55730684    1.3242131    1.8837737    6.6786279 
 1365000   0.94820494 5.0303641e-05   0.47022462 0.0016710334            0   0.46855358    1.4045286    1.8747532    4.4502996 
 1370000   0.97266694 0.00011009223   0.42417644 0.0015194238            0   0.42265702    1.4407629    1.8649393    7.5016616 
 1375000   0.99987969 -5.9316057e-05   0.42560676  0.010690839            0   0.41491592    1.4810718    1.9066785   -1.1303036 
 1380000   0.99481608 8.0733484e-05   0.43879743  0.012875075            0   0.42592236    1.4735713    1.9123688    6.0459231 
 1385000   0.97680155 -0.00011831349   0.44189565 0.0045466916            0   0.43734896    1.4468873     1.888783   -4.1688678 
 1390000   0.91660397 -0.00012653766   0.48938133  0.018147756            0   0.47123357    1.3577196     1.847101   -4.6316273 
 1395000   0.88625887 -1.2897009e-05   0.51605933  0.016171895            0   0.49988744     1.312771    1.8288303    1.1685034 
 1400000   0.86512998 8.6133027e-05   0.55383924  0.017300405            0   0.53653884    1.2814738     1.835313     6.245324 
 1405000   0.92768439 -3.3684092e-05   0.41600578  0.010229925            0   0.40577585    1.3741325    1.7901383  0.065512762 
 1410000   0.92015835 6.8662789e-05   0.42662838 0.0031168545            0   0.42351152    1.3629845    1.7896129    5.3051477 
 1415000   0.87527593 -0.00013528751   0.49752223   0.01539128            0   0.48213095    1.2965025    1.7940247   -5.1326956 
 1420000   0.85292064 0.00016862116   0.55151658  0.045229247            0   0.50628734    1.2633887    1.8149053    10.448309 
 1425000   0.86861522 -3.8560975e-05   0.52483801  0.020018432            0   0.50481958    1.2866363    1.8114743  -0.16284763 
 1430000   0.90774497 0.00014904582   0.44314163  0.005770316            0   0.43737132    1.3445972    1.7877389    9.4188848 
 1435000   0.80649591 -0.00010311904   0.58801627  0.022582146            0   0.56543412    1.1946221    1.7826383   -3.4970566 
 1440000   0.88662786 0.00015346022   0.48740745  0.014839276            0   0.47256817    1.3133175     1.800725    9.6578881 
 1445000   0.90422945 -3.0372369e-05   0.47254179  0.015560388            0    0.4569814    1.3393899    1.8119317   0.25686636 
 1450000    0.8805894 3.8734059e-05   0.50132648  0.031170493            0   0.47015599     1.304373    1.8056995    3.7888834 
 1455000   0.89444568 -0.000202283   0.48202671 0.0046249811            0   0.47740173    1.3248977    1.8069244   -8.5499651 
 1460000   0.88553595 6.767074e-05   0.50798566 0.0072304182            0   0.50075525    1.3117001    1.8196858    5.2844277 
 1465000   0.94670167 -3.9721647e-05    0.4219839  0.007662253            0   0.41432164    1.4023019    1.8242857  -0.20946255 
 1470000   0.87292267 3.4495545e-05   0.53473295  0.004938402            0   0.52979455    1.2930167    1.8277497    3.5939216 
 1475000   0.96905445 8.0175387e-05   0.39075954 0.0020405443            0   0.38871899    1.4354119    1.8261714    5.9311513 
 1480000   0.89455758 -3.6797287e-05    0.5220229 0.00075528213            0   0.52126761    1.3250634    1.8470863 -0.036934813 
 1485000   0.91671758 6.8704662e-05   0.46718572  0.011701572            0   0.45548415    1.3578879    1.8250736    5.3427523 
 1490000   0.91332665 -0.00010239685   0.48075671  0.031085986            0   0.44967073    1.3528651    1.8336218    -3.409097 
 1495000   0.94154869 9.1884732e-06   0.44673166  0.024878741            0   0.42185292     1.394669    1.8414007    2.3118505 
 1500000   0.92662373 -3.3405191e-05    0.4817796  0.016326329            0   0.46545327    1.3725614     1.854341   0.14399524 
 1505000   0.91931166 1.136757e-05   0.47557586  0.011591488            0   0.46398437    1.3617304    1.8373063    2.4193258 
 1510000    1.0189716 0.00010452732   0.38163016 0.0076246397            0   0.37400552    1.5093517    1.8909819    7.2427806 
 1515000   0.91269636 -0.00013619741   0.53297657 0.0053465547            0   0.52763001    1.3519315    1.8849081   -5.0883995 
 1520000   0.92198839 -7.9906503e-05   0.47647922 0.0060460025            0   0.47043321    1.3656953    1.8421745   -2.2490384 
 1525000   0.89000426 -8.667865e-05   0.51758306  0.020108355            0    0.4974747    1.3183188    1.8359019    -2.602045 
 1530000    0.8915663 0.00013334228   0.54311238  0.010437529            0   0.53267485    1.3206326     1.863745    8.6908699 
 1535000   0.90352198 -9.650524e-05   0.51468694 0.0069164075            0   0.50777053    1.3383419    1.8530289   -3.0880394 
 1540000   0.94192924 -7.6407245e-05   0.46496696  0.019501112            0   0.44546585    1.3952327    1.8601997   -2.0518513 
 1545000   0.92966375 -5.0203829e-06   0.47282851  0.014848554            0   0.45797996    1.3770644    1.8498929    1.5928493 
 1550000   0.89897937 -0.00011794805   0.54341147  0.024402008            0   0.51900946    1.3316132    1.8750247   -4.1639155 
 1555000   0.91022275 -7.7890557e-05   0.54540102  0.037795294            0   0.50760572    1.3482674    1.8936685    -2.094328 
 1560000    0.9154079 -4.4942174e-05   0.54307953  0.011889853            0   0.53118967    1.3559479    1.8990275  -0.40201185 
 1565000   0.91699336 0.00020176486   0.53210306 0.0034786317            0   0.52862443    1.3582964    1.8903995     12.22076 
 1570000    0.9055849 -4.560904e-07   0.55399381  0.023833634            0   0.53016017    1.3413976    1.8953914    1.8720396 
 1575000   0.99219871 1.5502853e-06   0.40275458   0.01729351            0   0.38546107    1.4696943    1.8724489    1.9518235 
 1580000   0.96729359 -6.9947324e-05   0.45074716 0.0013772325            0   0.44936992    1.4328036    1.8835508   -1.6977522 
 1585000   0.98646122 -7.8777033e-05   0.41538252 0.0017281245            0   0.41365439    1.4611957    1.8765782   -2.1568059 
 1590000   0.95219714 0.00012340493   0.45862571  0.010116185            0   0.44850953     1.410442    1.8690677    8.1874002 
 1595000   0.95852346 1.4620699e-05   0.44990033  0.023706703            0   0.42619363    1.4198129    1.8697132     2.618293 
 1600000   0.84211617 -3.931078e-05   0.61417959 0.0069204277            0   0.60725916    1.2473846    1.8615642  -0.15114774 
 1605000   0.95859364 -8.5112367e-06   0.41164862  0.036301943            0   0.37534668    1.4199168    1.8315654    1.3957901 
 1610000   0.92695707 0.00011261556   0.44372341 0.0059716581            0   0.43775175    1.3730552    1.8167786    7.5826951 
 1615000   0.87514421 -0.00017972907   0.53113578  0.015871932            0   0.51526385    1.2963074    1.8274431   -7.3746851 
 1620000   0.90572848 -5.4425204e-05   0.47960913 0.0086987851            0   0.47091034    1.3416103    1.8212194  -0.96535101 
 1625000   0.83947035 -4.3727771e-05    0.5496984  0.015367354            0   0.53433105    1.2434655    1.7931639  -0.44569801 
 1630000   0.92765412 0.00016203478   0.41534741  0.014661086            0   0.40068632    1.3740877    1.7894351    10.085616 
 1635000   0.92357051 -1.2562397e-05   0.43244316 0.0078411319            0   0.42460202    1.3680388     1.800482    1.1572873 
 1640000   0.87784945  3.62045e-05    0.4687045  0.030159709            0   0.43854479    1.3003145     1.769019    3.6226894 
 1645000   0.87066462 0.00019727425   0.45075895  0.023610593            0   0.42714835     1.289672    1.7404309    11.840872 
 1650000   0.86467512 -0.00011957755   0.44708851 0.0023157266            0   0.44477278       1.2808    1.7278885   -4.3944818 
 1655000   0.83027587 -9.4235527e-06   0.51987191 0.0011451517            0   0.51872676    1.2298461     1.749718    1.2672321 
 1660000   0.89546348 3.4771842e-05   0.40958773  0.011634049            0   0.39795368    1.3264053     1.735993    3.5163113 
 1665000   0.82205397 2.2870838e-05   0.51299976  0.012062491            0   0.50093727    1.2176674    1.7306672    2.9016541 
 1670000   0.86629128 5.195061e-05   0.42630543 0.0025273787            0   0.42377805     1.283194    1.7094994    4.3693706 
 1675000   0.93301251 1.7985192e-06   0.37822253 0.0053607582            0   0.37286177    1.3820248    1.7602473    1.8523315 
 1680000   0.83784456 4.0999134e-06   0.51036397 0.0056218161            0   0.50474216    1.2410573    1.7514212    1.9613368 
 1685000   0.84658027 -0.00010711769   0.50890375 0.00065563787            0   0.50824811     1.253997    1.7629008   -3.7215248 
 1690000   0.87443587 -2.6481243e-05   0.47146077 0.0018077207            0   0.46965305    1.2952581    1.7667189   0.41087924 
 1695000   0.88365409 7.0977244e-05   0.44723119  0.047939498            0   0.39929169    1.3089126    1.7561438    5.3901787 
 1700000   0.84576136 0.00019130204   0.50915272  0.047292804            0   0.46185992     1.252784    1.7619367    11.556601 
 1705000   0.82896655 1.6853117e-05   0.52896856  0.051835639            0   0.47713292    1.2279067    1.7568753    2.6197548 
 1710000   0.80798656 -1.4907281e-05   0.55191558  0.015079785            0   0.53683579    1.1968301    1.7487457   0.98549289 
 1715000   0.81436367 9.1359066e-06   0.52516389  0.012685217            0   0.51247867    1.2062762    1.7314401    2.1991985 
 1720000   0.80818476 8.4230314e-06   0.50595079  0.024234954            0   0.48171583    1.1971237    1.7030745    2.1343337 
 1725000   0.80715386 -2.4599029e-05   0.48309256 0.0052939864            0   0.47779858    1.1955967    1.6786892   0.41921894 
 1730000   0.88516515 1.8669631e-05   0.36616676  0.005912023            0   0.36025473    1.3111509    1.6773176    2.6332027 
 1735000   0.82385411 -5.7335773e-05   0.47655155 0.0044440128            0   0.47210754    1.2203339    1.6968855   -1.2387061 
 1740000   0.85821239 4.6339799e-05   0.41840313   0.00401695            0   0.41438618    1.2712271    1.6896302    4.0622279 
 1745000   0.86345158 4.6100063e-05   0.40835909  0.004267858            0   0.40409123    1.2789877    1.6873467    4.0476699 
 1750000   0.87374458 -9.7127785e-05    0.4110009 0.0036802829            0   0.40732061    1.2942342    1.7052351   -3.2677076 
 1755000    0.9233661 0.00013155147   0.34930352  0.007301596            0   0.34200192     1.367736    1.7170395    8.4524748 
 1760000   0.91926056 0.00010956101   0.36263575  0.013265815            0   0.34936993    1.3616547    1.7242905     7.333814 
 1765000   0.85977952 -6.7019758e-05   0.48456604  0.009037359            0   0.47552868    1.2735484    1.7581145   -1.6732972 
 1770000   0.86470524 7.6902802e-05   0.48470114 0.0070138987            0   0.47768724    1.2808446    1.7655458    5.7029692 
 1775000   0.89154133 4.1339851e-05   0.42851303 0.0080794061            0   0.42043362    1.3205956    1.7491086     3.865709 
 1780000    0.8702371 -3.3299683e-05   0.44787931 0.0049759745            0   0.44290334    1.2890387     1.736918  0.031974259 
 1785000   0.88432433 -6.7038654e-05   0.40503747 0.0045988706            0    0.4004386    1.3099054    1.7149429   -1.7174362 
 1790000   0.85765344 2.2618653e-05   0.43113547 0.0028378362            0   0.42829763    1.2703992    1.7015346    2.8596097 
 1795000   0.80834781 0.00011860302    0.4743172  0.023129389            0   0.45118781    1.1973652    1.6716824    7.7441568 
 1800000   0.80836445 -9.6504775e-05   0.45243422  0.016960071            0   0.43547415    1.1973898    1.6498241   -3.2912204 
 1805000   0.82592089 -2.2415498e-05   0.43198223 0.00087568046            0   0.43110655    1.2233953    1.6553775   0.50770403 
 1810000   0.85622285 6.1315773e-06   0.37932482 0.0050096623            0   0.37431516    1.2682801    1.6476049    1.9615417 
 1815000   0.85946159 -0.00012144437   0.35087022 0.0090656553            0   0.34180457    1.2730775    1.6239477   -4.5940042 
 1820000   0.84364144 6.7531091e-05   0.38616188  0.033095959            0   0.35306592    1.2496439    1.6358058    5.0933976 
 1825000   0.76770517 8.1998647e-05   0.50309771  0.035088219            0   0.46800949    1.1371633     1.640261    5.8385917 
 1830000   0.88689777 -1.8412668e-05   0.36529297  0.011679767            0    0.3536132    1.3137173    1.6790103    0.7362817 
 1835000   0.85307338 -2.7912437e-05   0.44167091  0.025462856            0   0.41620805     1.263615    1.7052859    0.2761691 
 1840000   0.86693525 -4.1691248e-06   0.42415973  0.022360932            0    0.4017988    1.2841478    1.7083076    1.4948484 
 1845000   0.78009935 -8.0917012e-06   0.53279988  0.039977223            0   0.49282266    1.1555222     1.688322    1.2740269 
 1850000   0.80685914 4.227753e-05   0.46740883  0.027282792            0   0.44012603    1.1951601    1.6625689    3.8271785 
 1855000   0.81764983 9.2243868e-05   0.43984488 0.0093236874            0   0.43052119    1.2111438    1.6509887    6.3738747 
 1860000    0.8489569 -7.1874141e-05   0.35401852 0.0028252911            0   0.35119323    1.2575174    1.6115359   -2.0684201 
 1865000    0.8019203 -9.3130519e-05   0.43848283 0.0015463458            0   0.43693649    1.1878444    1.6263273   -3.1419553 
 1870000   0.76564848 -9.8194417e-05    0.4552203 0.0093349409            0   0.44588536    1.1341168    1.5893371   -3.4382171 
 1875000   0.78777362 -9.2029735e-05   0.43666172  0.016346812            0   0.42031491    1.1668897    1.6035514    -3.108371 
 1880000   0.77970935 -9.002712e-05   0.48852667 0.0029392027            0   0.48558747    1.1549445    1.6434711   -2.9659174 
 1885000   0.78901564 -4.183955e-05   0.48196877            0            0   0.48196877    1.1687294    1.6506982  -0.49148679 
 1890000   0.88897098 9.0777567e-06   0.33507856 5.4537762e-05            0   0.33502402    1.3167883    1.6518668     2.116648 
 1895000   0.76525244 9.3082871e-07    0.4834621 0.00084430109            0    0.4826178    1.1335302    1.6169923    1.6646507 
 1900000   0.74557727 3.2596724e-05   0.51809081 0.0061336792            0   0.51195713    1.1043863    1.6224771    3.2914294 
 1905000   0.77434662 -3.7473395e-05   0.48110142  0.023245569            0   0.45785586    1.1470009    1.6281024  -0.29053546 
 1910000   0.78251301 3.8971189e-05   0.46579658  0.067537525            0   0.39825905    1.1590974     1.624894    3.6202189 
 1915000   0.75949696 0.00015604421   0.49822833  0.011704184            0   0.48652415    1.1250049    1.6232332    9.6126965 
 1920000   0.83291146 2.4224117e-05   0.40801319 0.0037254341            0   0.40428776    1.2337501    1.6417633    2.8820381 
 1925000   0.83233942  -5.7982e-05   0.41537375  0.010145718            0   0.40522803    1.2329028    1.6482765   -1.3204019 
 1930000   0.79016471 -0.00010013296    0.4836642  0.015697889            0   0.46796631    1.1704315    1.6540957   -3.4727119 
 1935000   0.78032781 -9.7075506e-05   0.50365742  0.014582082            0   0.48907534    1.1558606     1.659518   -3.3107479 
 1940000   0.85426797 3.3397729e-05   0.39886812  0.016317358            0   0.38255076    1.2653844    1.6642525    3.3742163 
 1945000   0.83434883 6.6293969e-05   0.44159049 0.0044922964            0   0.43709819    1.2358792    1.6774697    5.0717209 
 1950000   0.87840306 1.5788848e-05   0.38863795 0.0031892292            0   0.38544872    1.3011345    1.6897725    2.4981615 
 1955000     0.801452 -3.1715172e-05   0.52248129   0.00629531            0   0.51618598    1.1871508    1.7096321  0.085815249 
 1960000   0.83790127 2.1586224e-05   0.45495522   0.01088642            0    0.4440688    1.2411413    1.6960965    2.8013111 
 1965000    0.8519339 -3.1500153e-08   0.44355878 0.0074889004            0   0.43606988    1.2619271    1.7054859    1.7038731 
 1970000   0.83578862 6.8515606e-05   0.49229977 0.0047642703            0    0.4875355    1.2380119    1.7303117    5.2383107 
 1975000   0.90757483 -2.3939605e-05   0.42126097 0.0085660012            0   0.41269497    1.3443452    1.7656062    0.5398984 
 1980000    0.8803847 6.9805861e-05   0.47519608  0.013239233            0   0.46195685    1.3040698    1.7792659     5.353326 
 1985000   0.85564579 0.00016004947   0.50341014  0.015917415            0   0.48749273    1.2674253    1.7708355    9.9653683 
 1990000    0.8494517 8.7946038e-05   0.53234472  0.051545071            0   0.48079964    1.2582503    1.7905951    6.2934322 
 1995000   0.91252778 1.9607608e-05   0.46510161  0.044706339            0   0.42039527    1.3516818    1.8167834    2.8206929 
 2000000   0.85314778 -2.0431713e-06   0.51361823  0.014301423            0   0.49931681    1.2637251    1.7773434     1.672733 
 2005000   0.87784178 -1.3691988e-05   0.49868426 0.0087644313            0   0.48991983    1.3003031    1.7989874    1.0979576 
 2010000   0.89932137 2.3995034e-05   0.45849606 0.0072263998            0   0.45126966    1.3321198    1.7906158    3.0191616 
 2015000    0.9141221 -2.1456368e-05   0.43658089  0.043197096            0   0.39338379    1.3540434    1.7906243   0.69205822 
 2020000   0.82192282 -6.0990283e-05   0.59468644  0.055615316            0   0.53907113    1.2174732    1.8121596   -1.3105429 
 2025000   0.88092358 -1.8917482e-05   0.51294736   0.02814325            0    0.4848041    1.3048681    1.8178154   0.84924036 
 2030000   0.88450189 8.6088858e-05   0.50664002 0.0055787765            0   0.50106125    1.3101684    1.8168084     6.224558 
 2035000   0.94748532 -3.1179138e-05    0.4069549  0.019278696            0   0.38767621    1.4034626    1.8104175   0.21404568 
 2040000   0.83108554 -8.8925657e-05   0.53926126   0.01303544            0   0.52622582    1.2310455    1.7703067   -2.7826869 
 2045000   0.96475739 2.0087113e-05   0.35492494 0.0024516382            0    0.3524733    1.4290469    1.7839718     2.812432 
 2050000   0.84061217 -1.4291325e-05   0.53418464 0.00021951706            0   0.53396512    1.2451568    1.7793414    1.0476256 
 2055000   0.94626431 2.279497e-06   0.35937324  0.010050046            0    0.3493232     1.401654    1.7610272    1.8777375 
 2060000   0.84713503 2.7894738e-05   0.48503114   0.02601229            0   0.45901885    1.2548188    1.7398499    3.1680605 
 2065000   0.81513891 -0.0001720132   0.51994685 0.0091003869            0   0.51084646    1.2074245    1.7273714   -7.0797046 
 2070000   0.88834578 -9.9381223e-05   0.43295743  0.020443124            0   0.41251431    1.3158622    1.7488196    -3.339499 
 2075000   0.89884978 5.3847686e-05   0.43973733  0.020452697            0   0.41928464    1.3314212    1.7711586    4.5281601 
 2080000   0.81315463 -1.6586898e-05   0.56304121   0.02647731            0    0.5365639    1.2044853    1.7675265   0.91827731 
 2085000   0.93450965 0.0001123669   0.37226069  0.028696813            0   0.34356387    1.3842424    1.7565031    7.5096886 
 2090000   0.89739471 -1.3000769e-05   0.42601476  0.010605271            0   0.41540948    1.3292659    1.7552807    1.0896413 
 2095000   0.90669586 -7.0370097e-05   0.42275921 0.0049953579            0   0.41776385    1.3430432    1.7658025   -1.8371465 
 2100000   0.90006104 -1.6287111e-05   0.39824909  0.012547489            0    0.3857016    1.3332154    1.7314645   0.89756444 
 2105000    0.8692899 -4.2919201e-05   0.44429108   0.01687866            0   0.42741242    1.2876357    1.7319267  -0.46553633 
 2110000   0.88775105 -2.2644007e-06   0.43218433  0.013877468            0   0.41830687    1.3149812    1.7471656    1.6312283 
 2115000   0.91551547 9.6683327e-05   0.39124912  0.021487905            0   0.36976121    1.3561073    1.7473564    6.6975427 
 2120000   0.86006824 1.8017106e-05   0.45367532   0.01406658            0   0.43960874    1.2739761    1.7276514    2.6501272 
 2125000   0.85586109 -8.676322e-05   0.45758559 0.0057560851            0   0.45182951    1.2677442    1.7253298    -2.716947 
 2130000   0.83622689 -4.8523557e-05    0.4814267 0.0080778777            0   0.47334882    1.2386611    1.7200878  -0.76431836 
 2135000   0.93104549 -6.4787683e-06    0.3470356  0.008983093            0   0.33805251    1.3791111    1.7261467    1.3944338 
 2140000   0.97202512 -2.9781416e-05   0.30927872  0.013347198            0   0.29593152    1.4398122    1.7490909   0.22428244 
 2145000    0.8740593 3.093772e-07   0.44778358 0.0086203941            0   0.43916319    1.2947003    1.7424839     1.758324 
 2150000   0.86303309 1.5477683e-05   0.44383706 0.0010151404            0   0.44282192    1.2783678    1.7222048    2.5146622 
 2155000   0.91955645 -4.359331e-05   0.39126308 0.0045378059            0   0.38672528     1.362093    1.7533561   -0.4786214 
 2160000   0.80724104 -4.5780114e-07   0.54687925  0.017492287            0   0.52938696    1.1957258     1.742605    1.7191656 
 2165000   0.90517412 -5.2760253e-05   0.41540237  0.016745656            0   0.39865672    1.3407892    1.7561915  -0.94513342 
 2170000   0.90698857 -0.00010111675   0.41230199  0.007671845            0   0.40463014    1.3434768    1.7557788   -3.4213986 
 2175000   0.84557575 4.0979431e-05   0.49149608 0.0026229034            0   0.48887317    1.2525091    1.7440052     3.842152 
 2180000   0.89783811 3.5599729e-05   0.39977318  0.031971575            0    0.3678016    1.3299227    1.7296959     3.552402 
 2185000   0.84387312 2.0404988e-05   0.49118315  0.020764739            0   0.47041841    1.2499871    1.7411702    2.7859056 
 2190000   0.89392021 8.1123675e-06   0.39023101  0.011373941            0   0.37885707    1.3241193    1.7143503    2.1297035 
 2195000   0.85424133 -4.6476302e-05   0.45990363 0.0068858887            0   0.45301774     1.265345    1.7252486  -0.65433805 
 2200000   0.95956239 8.0222521e-05   0.32207938  0.012608267            0   0.30947112    1.4213518    1.7434312    5.8508242 
 2205000   0.89345603 4.2641629e-05   0.45751073  0.027311617            0   0.43019912    1.3234318    1.7809425    3.9641939 
 2210000   0.83630582 -4.8681235e-05   0.51804817  0.014891152            0   0.50315701     1.238778    1.7568262  -0.73565305 
 2215000   0.90610174 -1.989735e-05   0.40850223 0.0036464787            0   0.40485576    1.3421632    1.7506654   0.73192113 
 2220000   0.90350898 1.3872289e-05   0.42064555  0.015119535            0   0.40552602    1.3383227    1.7589682    2.4692294 
 2225000   0.86938509 6.6730815e-05    0.4454706   0.01831596            0   0.42715464    1.2877767    1.7332473     5.149865 
 2230000   0.86060359 2.0882738e-05   0.44397833 0.0084753752            0   0.43550295    1.2747691    1.7187474    2.7879436 
 2235000   0.90195942 -4.8801847e-05   0.38777396 0.0097068979            0   0.37806706    1.3360274    1.7238013  -0.77485321 
 2240000   0.92789951 -2.2443617e-05   0.38750265 0.0091279387            0   0.37837471    1.3744511    1.7619538   0.61284059 
 2245000    0.8658794 -5.2425366e-05   0.46766672 0.0087683411            0   0.45889838    1.2825839    1.7502506  -0.93392818 
 2250000   0.90668244 -7.907249e-05    0.4352393  0.028131503            0    0.4071078    1.3430234    1.7782627   -2.2702488 
 2255000   0.86114986 -3.9284031e-05   0.49981678  0.010212064            0   0.48960472    1.2755782     1.775395  -0.23594738 
 2260000   0.91297622 -6.2377999e-05   0.38739799  0.017735542            0   0.36966245     1.352346     1.739744   -1.4540095 
 2265000   0.83716916 -0.00010082069   0.50300093  0.048981779            0   0.45401915    1.2400568    1.7430577   -3.4189614 
 2270000   0.82196647 1.3897786e-05   0.53215619  0.042658686            0   0.48949751    1.2175378     1.749694    2.4612607 
 2275000   0.89892736 8.5186806e-05   0.40741076 0.0082331127            0   0.39917765    1.3315362    1.7389469    6.1005114 
 2280000   0.93065757 -9.7458259e-05   0.32877861  0.035621054            0   0.29315755    1.3785365    1.7073151   -3.2825477 
 2285000   0.82409836 -0.0001808743   0.47874913  0.026551278            0   0.45219785    1.2206957    1.6994448   -7.5613192 
 2290000   0.83835762 1.3054558e-05   0.45870088  0.019325108            0   0.43937577    1.2418172    1.7005181    2.3689115 
 2295000   0.86297425 3.4158076e-06   0.42727734 0.0038570665            0   0.42342027    1.2782806    1.7055579    1.8804473 
 2300000   0.88732445 -0.00012119728   0.39127871 0.00049192932            0   0.39078679    1.3143493    1.7056281   -4.4996729 
 2305000   0.86793838 -5.256656e-05   0.46921391 0.00071586611            0   0.46849804    1.2856337    1.7548476  -0.93656023 
 2310000   0.87928864 2.478399e-05   0.44529827 0.0011160265            0   0.44418224    1.3024463    1.7477446    3.0166848 
 2315000   0.92129895 -4.0121112e-05   0.37011635 0.0024353456            0     0.367681    1.3646741    1.7347904  -0.31941053 
 2320000   0.88707061 -4.8419055e-05   0.44646108 0.0042746234            0   0.44218645    1.3139733    1.7604344  -0.71862121 
 2325000   0.90391853 0.00014520515   0.42050867 0.0087783173            0   0.41173035    1.3389293     1.759438    9.1939415 
 2330000   0.90365151 0.00015018569   0.40169103 0.0073579935            0   0.39433303    1.3385338    1.7402248    9.4297323 
 2335000   0.83788799 5.4860743e-06   0.47383291 0.0056940004            0   0.46813891    1.2411216    1.7149545    1.9958415 
 2340000   0.94067113 3.0252394e-05   0.35934235 0.0045744495            0    0.3547679    1.3933691    1.7527115     3.301634 
 2345000   0.88431433 9.4629352e-05   0.43312476  0.010022158            0   0.42310261    1.3098906    1.7430154    6.5880382 
 2350000   0.84726528 -2.4491077e-05   0.47122765  0.025675074            0   0.44555257    1.2550117    1.7262393   0.47229619 
 2355000   0.84919533 -6.0079959e-05   0.45004219   0.01802921            0   0.43201299    1.2578706    1.7079128   -1.3681811 
 2360000   0.87216546 5.699811e-05   0.41722938  0.016094675            0   0.40113471    1.2918951    1.7091245    4.6274277 
 2365000   0.91124609 2.1047206e-06   0.34548855  0.022914306            0   0.32257425    1.3497833    1.6952718    1.8030335 
 2370000   0.87868539 -1.0816955e-05   0.40181401 0.0051836691            0   0.39663034    1.3015527    1.7033667    1.1495386 
 2375000   0.83806721 1.6154459e-05   0.47849599 0.0063513912            0    0.4721446     1.241387     1.719883    2.5469913 
 2380000   0.95907247 2.1971966e-05   0.32406915 0.0036969621            0   0.32037219    1.4206261    1.7446953    2.8696599 
 2385000   0.95578714 -3.9106021e-05     0.372126  0.018439433            0   0.35368656    1.4157597    1.7878857  -0.21434259 
 2390000   0.94588218 4.327912e-05   0.38577803   0.01844184            0   0.36733619     1.401088     1.786866     4.002757 
 2395000   0.90462674 -3.1250529e-05   0.45683961 0.0085112872            0   0.44832833    1.3399784     1.796818   0.19679088 
 2400000   0.97870999 -1.1425604e-06    0.3599458  0.018729835            0   0.34121596    1.4497142      1.80966    1.7511609 
 2405000   0.93363116 -7.6890341e-05   0.42579947 0.0067503966            0   0.41904907    1.3829412    1.8087406   -2.1280448 
 2410000   0.88415128 0.00012790828   0.49444745  0.004676024            0   0.48977142    1.3096491    1.8040965    8.3530003 
 2415000   0.88276791 3.6140401e-05   0.48929848  0.007656267            0   0.48164222       1.3076    1.7968985     3.647287 
 2420000    1.0010709 -5.4222188e-05   0.32754378 0.0047664425            0   0.32277733    1.4828363      1.81038  -0.96579597 
 2425000   0.92637564 -6.0707155e-06    0.4506493 0.0013846542            0   0.44926465    1.3721939    1.8228432    1.5120226 
 2430000   0.98493721 -2.7776618e-05   0.37590605 0.00014614476            0    0.3757599    1.4589382    1.8348443   0.41268144 
 2435000   0.93848441 -4.5887138e-05   0.43427433  0.011562378            0   0.42271195      1.39013    1.8244044  -0.52501712 
 2440000   0.93644518 7.2348655e-05   0.44821915  0.035408406            0   0.41281074    1.3871094    1.8353286    5.5395797 
 2445000   0.91975239 5.1247196e-05   0.47141568  0.024695861            0   0.44671982    1.3623832    1.8337989    4.4576553 
 2450000   0.96057568 -6.0076822e-05   0.44114833  0.017253261            0   0.42389507    1.4228527    1.8640011   -1.2119322 
 2455000   0.89689287 -4.0597022e-05   0.52975963 0.0014109186            0   0.52834871    1.3285226    1.8582822  -0.22028533 
 2460000   0.93122963 3.8102313e-05   0.50784243            0            0   0.50784243    1.3793839    1.8872263    3.8380648 
 2465000   0.99169255 -2.9500727e-05   0.40862631            0            0   0.40862631    1.4689446    1.8775709   0.36713368 
 2470000    1.0027024 -7.8772305e-05    0.3517696            0            0    0.3517696    1.4852529    1.8370225   -2.1961195 
 2475000   0.99308515 -8.6053789e-05   0.38198721 7.505216e-06            0    0.3819797    1.4710074    1.8529946   -2.5529594 
 2480000   0.95917094 -4.6676464e-06   0.44084543 0.0038728718            0   0.43697255     1.420772    1.8616174    1.6226339 
 2485000   0.96692358 7.4226987e-05   0.43321292  0.017163319            0    0.4160496    1.4322555    1.8654685    5.6658902 
 2490000   0.94743819 2.7678705e-07   0.42047094  0.042251055            0   0.37821989    1.4033928    1.8238638    1.8380353 
 2495000   0.91518165 -0.00010469838    0.4494112  0.020558438            0   0.42885277    1.3556128     1.805024   -3.5555329 
 2500000   0.99094717 -7.6401597e-05   0.36235435 0.0086600534            0   0.35369429    1.4678405    1.8301948    -2.081567 
 2505000   0.94650697 2.6478421e-05   0.43487397 0.0025680748            0   0.43230589    1.4020134    1.8368874    3.1925826 
 2510000   0.92937754 -2.723684e-05   0.45650945 0.0065963505            0    0.4499131    1.3766405    1.8331499   0.43862371 
 2515000    0.9531572 -0.00011774354   0.43354264  0.018403015            0   0.41513962    1.4118641    1.8454067   -4.1830625 
 2520000   0.93115423 -0.00014807817   0.47607164  0.029395164            0   0.44667647    1.3792722    1.8553438   -5.7262584 
 2525000     1.007479 2.7956727e-06   0.35732122   0.02391122            0      0.33341    1.4923283    1.8496495    1.9927879 
 2530000    1.0000789 8.2881579e-05   0.36070723  0.011872146            0   0.34883508    1.4813668    1.8420741    6.0856109 
 2535000   0.95408156 0.00010338263   0.41394256 0.0057586062            0   0.40818396    1.4132333    1.8271759    7.1203666 
 2540000   0.98608866 -7.4792616e-05   0.39437824   0.00435642            0   0.39002182    1.4606438    1.8550221   -1.9743599 
 2545000   0.96178128 -0.00014955957   0.41858353 0.0064894052            0   0.41209412    1.4246385     1.843222    -5.814228 
 2550000   0.96223046 2.0928677e-05   0.40436735  0.013535463            0   0.39083189    1.4253039    1.8296712    2.9012195 
 2555000   0.93727591 1.1984173e-05   0.47276182  0.033479885            0   0.43928193    1.3883399    1.8611018    2.4746914 
 2560000   0.96554019 -7.2333046e-05   0.41151169  0.020985945            0   0.39052574    1.4302064    1.8417181   -1.8617339 
 2565000   0.95566602 -1.2295677e-05    0.4233358  0.013468537            0   0.40986726    1.4155803    1.8389161    1.2093774 
 2570000   0.91619905 2.544426e-05   0.46300616  0.046524665            0   0.41648149    1.3571198     1.820126    3.1228721 
 2575000   0.89537507 -3.2034484e-05      0.49378   0.04481246            0   0.44896754    1.3262743    1.8200543   0.17988876 
 2580000   0.93237339 -0.00010883697   0.45019399  0.043370318            0   0.40682367    1.3810781    1.8312721   -3.7411807 
 2585000   0.96851085 6.7730341e-07    0.4120794  0.034891442            0   0.37718796    1.4346067    1.8466861     1.881364 
 2590000   0.92553243 -0.00013536402   0.45987032  0.016492813            0   0.44337751    1.3709449    1.8308152   -5.0998228 
 2595000   0.95406623 -0.00012798251   0.42628661 0.0046172972            0   0.42166931    1.4132106    1.8394972   -4.7132071 
 2600000   0.94033901 3.2548957e-05   0.44968352 0.0021943477            0   0.44748917    1.3928772    1.8425607    3.5090673 
 2605000   0.92619664 -3.9633472e-05   0.47727603  0.009707206            0   0.46756883    1.3719288    1.8492048  -0.18002898 
 2610000    1.0106605 -1.1391635e-05   0.39905029 0.0046779038            0   0.39437238    1.4970409    1.8960912    1.3128395 
 2615000   0.95137453 1.4816823e-05   0.48233987 0.0021709944            0   0.48016887    1.4092235    1.8915634    2.6501847 
 2620000   0.97827408 -4.48941e-05   0.43332396  0.020856792            0   0.41246717    1.4490685    1.8823924  -0.41618549 
 2625000   0.95696182 -9.3980989e-05     0.443946  0.020150202            0    0.4237958    1.4174997    1.8614457   -2.9503809 
 2630000   0.96065492 -9.0909081e-05    0.4269823  0.029298125            0   0.39768417    1.4229701    1.8499524   -2.8045925 
 2635000   0.99839292 7.0837031e-05   0.37787427   0.01351248            0   0.36436179    1.4788695    1.8567438    5.4835998 
 2640000    1.0248998 0.00010749145   0.34716777   0.01003958            0   0.33712819    1.5181329    1.8653006    7.3688628 
 2645000   0.96551123 -5.0231115e-05   0.41018635  0.014047815            0   0.39613853    1.4301635    1.8403499  -0.73148325 
 2650000   0.99332509 -1.8745381e-06   0.39114874  0.013203845            0   0.37794489    1.4713628    1.8625115    1.7665352 
 2655000    1.0269806 -7.2516252e-06   0.29995869 0.0044786267            0   0.29548006     1.521215    1.8211737    1.4498905 
 2660000   0.97183697 -4.3256004e-06   0.37594614 0.0018364909            0   0.37410965    1.4395335    1.8154796    1.5940089 
 2665000   0.99653958 -2.3079263e-05    0.3402426  0.010659995            0    0.3295826    1.4761243    1.8163669    0.6347086 
 2670000   0.96339051 4.0949281e-05   0.39784887  0.031615227            0   0.36623364    1.4270222    1.8248711    3.9214742 
 2675000   0.91811567 4.2509198e-05   0.47071339  0.052751827            0   0.41796157    1.3599588    1.8306722    4.0071432 
 2680000   0.97602914 9.3395861e-05   0.37705831  0.025926608            0    0.3511317    1.4457432    1.8228015    6.6046695 
 2685000   0.97073615 6.8257867e-05   0.33774311  0.012653807            0   0.32508931    1.4379029     1.775646    5.2704488 
 2690000   0.93078749  4.17748e-05   0.40149982  0.024644832            0   0.37685499     1.378729    1.7802288    3.9190986 
 2695000   0.92210434 8.7728265e-05   0.40213471  0.035135283            0   0.36699942    1.3658671    1.7680018    6.2596889 
 2700000   0.86272027 2.0152037e-05   0.47392427  0.030126069            0    0.4437982    1.2779044    1.7518287     2.783613 
 2705000   0.93582302 -1.7378346e-05   0.36193763  0.012515964            0   0.34942167    1.3861878    1.7481255   0.85835414 
 2710000   0.98521071 -8.5176224e-05   0.27768473 0.0065937523            0   0.27109098    1.4593434    1.7370281   -2.6239945 
 2715000   0.94020905 -8.7146895e-05   0.33741497 0.0050650254            0   0.33234995    1.3926847    1.7300996   -2.7318214 
 2720000   0.90965863 1.265408e-05   0.41934033 0.0085098024            0   0.41083053    1.3474318    1.7667722    2.4146611 
 2725000   0.91719426 -6.5696643e-05   0.39479596  0.023533228            0   0.37126273     1.358594      1.75339   -1.6102781 
 2730000   0.90243552 -2.3746571e-06   0.37946369  0.010583238            0   0.36888045    1.3367326    1.7161963    1.5946139 
 2735000   0.89289004 5.5843692e-05   0.38034723  0.018253894            0   0.36209334    1.3225934    1.7029406    4.5621376 
 2740000   0.91811727 -5.881117e-05   0.34010251  0.028919716            0   0.31118279    1.3599612    1.7000637   -1.3110682 
 2745000   0.88912367 -0.0001130677   0.38776178  0.027297328            0   0.36046445    1.3170144    1.7047762     -4.08429 
 2750000   0.87076742 -6.4510981e-05    0.4391569  0.025054053            0   0.41410285    1.2898242    1.7289811   -1.5739811 
 2755000   0.90897865 6.4765471e-06   0.38232038 0.0071552818            0    0.3751651    1.3464246     1.728745    2.0603442 
 2760000   0.93648009 -3.0389077e-05   0.34029346  0.009844191            0   0.33044927    1.3871611    1.7274546   0.17153387 
 2765000   0.89998771 -4.7444303e-05   0.39485061  0.013094045            0   0.38175656    1.3331068    1.7279574  -0.70119091 
 2770000   0.89892328 -4.2440962e-07    0.3774596  0.010759569            0   0.36670004    1.3315301    1.7089897    1.6872599 
 2775000   0.91239495 2.5310519e-05   0.38866567 0.0043936508            0   0.38427201     1.351485    1.7401507    3.0360492 
 2780000   0.96032931 -8.2391805e-05   0.34021964 0.0071510116            0   0.33306863    1.4224878    1.7627074    -2.455753 
 2785000   0.89512076 -0.00014806139   0.42165793 0.0042791153            0   0.41737882    1.3258976    1.7475556   -5.8331877 
 2790000   0.95297036 2.6423827e-05    0.3428523 0.00041643764            0   0.34243586    1.4115873    1.7544396    3.1073396 
 2795000   0.86435659 6.1219273e-05   0.44895924 0.0050041029            0   0.44395514    1.2803282    1.7292874    4.8637142 
 2800000    0.9295695 1.8787289e-05   0.36058475  0.024662491            0   0.33592226    1.3769248    1.7375096    2.6994188 
 2805000    0.9360331 2.9790742e-05   0.36471153 0.0061332355            0    0.3585783     1.386499    1.7512106    3.2764966 
 2810000   0.84398655 -0.00012240486   0.47595111 0.0076584397            0   0.46829267    1.2501551    1.7261062   -4.5410225 
 2815000   0.85292627 -0.0001065668   0.41966605 0.0076986554            0    0.4119674     1.263397    1.6830631   -3.7731569 
 2820000   0.90874959 -1.515932e-06   0.36229532 0.0030760639            0   0.35921926    1.3460853    1.7083807    1.6307649 
 2825000   0.89358102 -9.7777475e-05   0.36442904 0.0050701643            0   0.35935888    1.3236169    1.6880459   -3.3181608 
 2830000   0.84238154 -0.00010247424   0.43253283  0.002088548            0   0.43044428    1.2477777    1.6803105   -3.5663708 
 2835000   0.88034435 3.3034677e-05   0.37646016 0.0032570125            0   0.37320314    1.3040101    1.6804702    3.3718457 
 2840000   0.87839448 -5.6391788e-05   0.38864553 0.0041533937            0   0.38449213    1.3011218    1.6897673   -1.1974922 
 2845000   0.91350067 1.625458e-06   0.33048876 0.0032457798            0   0.32724298    1.3531229    1.6836116    1.7668351 
 2850000   0.85327691 0.00014730193   0.44991023  0.004285339            0   0.44562489    1.2639164    1.7138266    9.2556854 
 2855000   0.91620541 4.5691074e-05   0.38067064 0.0044936505            0   0.37617699    1.3571293    1.7377999    4.0771829 
 2860000   0.88901429 7.993809e-06   0.44245899  0.012231008            0   0.43022798    1.3168524    1.7593114    2.1685944 
 2865000   0.88376979 1.885587e-05    0.4362584  0.032978955            0   0.40327944     1.309084    1.7453424     2.710763 
 2870000   0.87314635 -2.8579344e-05   0.44929672  0.041705314            0   0.40759141     1.293348    1.7426448   0.27938235 
 2875000   0.90788412 -3.040198e-05   0.39438241  0.017837776            0   0.37654463    1.3448034    1.7391858    0.1826044 
 2880000   0.87449887 0.00010114811     0.480978 0.0056972547            0   0.47528074    1.2953515    1.7763294    6.9551128 
 2885000   0.88577075 2.4927187e-05   0.45945415 0.0041546218            0   0.45529953    1.3120479    1.7715021     3.047774 
 2890000   0.92661559 2.5726195e-05    0.3992279 0.0053874765            0   0.39384042    1.3725493    1.7717772    3.0889584 
 2895000   0.84241389 5.4441865e-05    0.5066483 0.0011881321            0   0.50546017    1.2478256    1.7544739    4.5418974 
 2900000    0.9623351 -2.6134682e-05   0.35885644 0.0042241305            0   0.35463231    1.4254589    1.7843153   0.44621959 
 2905000   0.91413393 -5.3222292e-05   0.42374792  0.018791675            0   0.40495625    1.3540609    1.7778088  -0.94717256 
 2910000   0.93450031 1.4149394e-05   0.42513767  0.025257682            0   0.39987999    1.3842286    1.8093663    2.5338152 
 2915000   0.91884608 -3.6371662e-05   0.42841188  0.010823943            0   0.41758794    1.3610408    1.7894526 -0.072776454 
 2920000   0.93732165 3.2432356e-05   0.43175572 0.0068055964            0   0.42495012    1.3884077    1.8201634       3.4807 
 2925000   0.88161896 0.00017073234   0.50615337 0.0038325917            0   0.50232078    1.3058981    1.8120515    10.553547 
 2930000   0.93355056 -7.7896701e-05   0.44908915 0.00095715339            0     0.448132    1.3828218    1.8319109   -2.1564002 
 2935000   0.89461186 -0.00014115496   0.50418342 0.0077205986            0   0.49646282    1.3251438    1.8293272   -5.3978067 
 2940000   0.95901814 5.743112e-05   0.41488463 0.0035722959            0   0.41131234    1.4205456    1.8354303    4.7759036 
 2945000   0.93034112 2.8438195e-05   0.45484784 0.0044829886            0   0.45036485    1.3780678    1.8329156    3.2889512 
 2950000   0.84602892 5.2390397e-05   0.56732301  0.024658671            0   0.54266434    1.2531803    1.8205034    4.5028917 
 2955000    0.9615229 7.9389845e-05   0.40484133  0.048364219            0   0.35647711    1.4242558    1.8290971    5.8938572 
 2960000    0.8985812 3.7375694e-05   0.52270181 0.0090988579            0   0.51360295    1.3310234    1.8537252    3.7673607 
 2965000   0.96834766 -1.4061236e-05   0.44908232 0.0068963264            0     0.442186     1.434365    1.8834473     1.163512 
 2970000     1.011564 -0.00011157694   0.43417531 0.0048162459            0   0.42935907    1.4983791    1.9325545    -3.780185 
 2975000   0.98274104 1.2475416e-05   0.46537319  0.020273205            0   0.44509998    1.4556852    1.9210583    2.5597996 
 2980000   0.94836638 9.776153e-05   0.50826916  0.020575393            0   0.48769377    1.4047677    1.9130369    6.9184272 
 2985000   0.96587872 7.0429851e-06   0.46097148  0.025751977            0   0.43521951    1.4307079    1.8916793    2.2522802 
 2990000   0.99780582 -1.7460309e-05   0.42322345   0.04733019            0   0.37589326    1.4779999    1.9012233    1.0072555 
 2995000   0.99737499 -2.5529495e-07   0.41272315  0.012990196            0   0.39973296    1.4773617    1.8900849    1.8770138 
[...]
19285000     1.011644 7.2793831e-05   0.51986268  0.020245078            0    0.4996176    1.4984977    2.0183604    5.7454046 
19290000    1.0341569 1.4486135e-05   0.47426575  0.041578473            0   0.43268728    1.5318449    2.0061107    2.7478008 
19295000   0.96647732 3.0604339e-05   0.57972216  0.023111488            0   0.55661067    1.4315945    2.0113167    3.5782589 
19300000    0.9378859 6.632002e-05   0.60236159  0.010285123            0   0.59207646    1.3892435    1.9916051    5.3871901 
19305000   0.95343943 9.7559281e-06   0.60682952  0.034983226            0   0.57184629    1.4122821    2.0191117    2.5186152 
19310000    1.0047196 -2.204892e-05   0.51049182  0.038977828            0   0.47151399    1.4882409    1.9987327     0.869828 
19315000    1.0971275 6.932026e-06   0.37770098  0.014819122            0   0.36288186      1.62512     2.002821    2.3577407 
19320000   0.90316955 8.4649407e-05   0.67109916   0.02075155            0   0.65034761    1.3378199    2.0089191    6.3429687 
19325000    1.0233672 5.8064391e-05   0.49021641  0.015782576            0   0.47443384    1.5158627    2.0060791    4.9789759 
19330000    1.0192237 -1.8239865e-05   0.53162683 0.0057777888            0   0.52584904    1.5097251     2.041352    1.1074709 
19335000    1.0974818 8.5079495e-05    0.4552467 0.0061424723            0   0.44910423    1.6256449    2.0808916    6.4369617 
19340000    1.0417297 0.00012276998   0.51787637  0.018211172            0    0.4996652    1.5430622    2.0609385    8.3467617 
19345000   0.99433822 -8.042873e-06    0.6363382  0.038109189            0   0.59822901    1.4728635    2.1092017    1.6974066 
19350000    1.0381927 -2.6224832e-05    0.5861533  0.039184704            0    0.5469686     1.537823    2.1239763    0.7812649 
19355000    1.0961046 0.00014039251   0.50380526  0.046170966            0   0.45763429     1.623605    2.1274102    9.3155068 
19360000    1.0861192 4.9785381e-05   0.50007524  0.019189805            0   0.48088543     1.608814    2.1088892    4.6579007 
19365000    1.0496968 -0.00010227771   0.55415704 0.0066262312            0   0.54753081    1.5548633    2.1090204   -3.1275985 
19370000    1.0927376 7.2134932e-06   0.50984356  0.018546883            0   0.49129668    1.6186175    2.1284611    2.4977919 
19375000   0.95532403 2.9924722e-05   0.71393359  0.031779543            0   0.68215405    1.4150737    2.1290073    3.6611531 
19380000   0.98027491 -5.488975e-05     0.637535  0.061603688            0   0.57593132    1.4520322    2.0895672  -0.72078799 
19385000    1.0100737 -7.0066876e-05     0.602176  0.023622222            0   0.57855377    1.4961716    2.0983476   -1.4890764 
19390000    1.0214464 -1.3169622e-05    0.5996758  0.017979406            0   0.58169639    1.5130175    2.1126933    1.4384086 
19395000     1.080617 8.5653195e-05    0.5247448  0.010219546            0   0.51452525     1.600664    2.1254088    6.5108524 
19400000    1.0371748 -1.2343607e-05   0.57008109  0.014488028            0   0.55559306    1.5363152    2.1063963    1.4744036 
19405000    1.0577266 -6.4503603e-05   0.54939015  0.030820485            0   0.51856967    1.5667575    2.1161477   -1.1864368 
19410000    1.0804196 5.6065201e-05   0.49592528  0.024649031            0   0.47127625    1.6003715    2.0962968     4.966835 
19415000    1.0358397 3.6374459e-05   0.55931346  0.032436293            0   0.52687716    1.5343376     2.093651    3.9560233 
19420000    1.0905203 -4.0643279e-05   0.46842258  0.027968324            0   0.44045425    1.6153332    2.0837558 0.0028199259 
19425000    1.0362872 -5.1831526e-05   0.52268523  0.018484791            0   0.50420044    1.5350005    2.0576857  -0.59608841 
19430000    1.0248151 1.4552173e-05    0.5441507  0.016183972            0   0.52796673    1.5180073     2.062158    2.8072293 
19435000    1.0440964  0.000117145      0.49688  0.010965051            0   0.48591495    1.5465678    2.0434478    8.0412719 
19440000    1.0738134 8.374704e-05   0.43918303 0.0035133337            0    0.4356697    1.5905861    2.0297691    6.3176176 
19445000    1.0145277 0.00010141377   0.54872667 0.00078774745            0   0.54793893    1.5027691    2.0514958    7.2438807 
19450000    1.0645009 5.5432896e-05    0.4894168            0            0    0.4894168    1.5767919    2.0662087     4.904373 
19455000   0.96360732 -3.2963007e-05   0.59778138            0            0   0.59778138    1.4273433    2.0251247   0.33741878 
19460000    1.0234785 -7.5830504e-05   0.49948808 0.00060384041            0   0.49888424    1.5160276    2.0155157   -1.8670061 
19465000    1.0234545 3.2068227e-05   0.50190555  0.020190994            0   0.48171455    1.5159919    2.0178975    3.6597907 
19470000   0.97302615 0.00010790396   0.59710082  0.026527279            0   0.57057354     1.441295    2.0383958    7.5630787 
19475000    1.0417277 9.6510832e-05   0.52522924   0.01485657            0   0.51037267    1.5430591    2.0682884     7.009643 
19480000   0.95558522 3.0648693e-05   0.62956638  0.015612427            0   0.61395395    1.4154606     2.045027    3.6142401 
19485000   0.99442155 2.0422082e-05   0.57705529  0.056611953            0   0.52044334    1.4729869    2.0500422    3.0956528 
19490000   0.98553297 -8.7836447e-05   0.57476498  0.062871331            0   0.51189365    1.4598207    2.0345857   -2.4626404 
19495000    1.0217152 -4.8719418e-05   0.49303187  0.055263848            0   0.43776802    1.5134156    2.0064475  -0.48798671 
19500000    1.0135139 5.6712639e-05   0.51355109  0.065352888            0    0.4481982    1.5012675    2.0148186    4.9185057 
19505000   0.94429449 -3.988356e-05   0.61627829  0.059858171            0   0.55642012    1.3987362    2.0150145 -0.027023771 
19510000   0.94708635 -3.1317015e-05   0.61041551  0.037796306            0    0.5726192    1.4028717    2.0132872   0.40985599 
19515000      1.00683 1.2575649e-05   0.49496058  0.011612779            0    0.4833478     1.491367    1.9863276    2.6302008 
19520000   0.95969623 1.7291066e-05   0.56910754 0.0071925837            0   0.56191496      1.42155    1.9906576    2.8759602 
19525000   0.99589529 8.7686109e-05   0.50577975  0.014207673            0   0.49157208    1.4751699    1.9809497    6.4704784 
19530000    0.9614959 4.1490909e-05   0.56486643  0.023749446            0   0.54111698    1.4242158    1.9890822    4.1134168 
19535000   0.96804205 -1.5422272e-05    0.5627243  0.082977655            0   0.47974664    1.4339123    1.9966366    1.2070163 
19540000   0.96438841 2.890762e-05   0.57286351   0.11662636            0   0.45623715    1.4285003    2.0013638     3.481434 
19545000    1.0297889 2.5188067e-05   0.50937386 0.0070197144            0   0.50235414    1.5253748    2.0347487    3.3243777 
19550000    1.0844835 -0.00013803229   0.44898001  0.018563505            0    0.4304165    1.6063912    2.0553712   -5.0118822 
19555000    1.0281701 -0.00018059718   0.54869947  0.032999666            0   0.51569981     1.522977    2.0716765   -7.1748989 
19560000    1.0628825 3.4083069e-05   0.47968827 0.0048479318            0   0.47484034    1.5743948     2.054083    3.7991362 
19565000    1.0237699 2.3364644e-05   0.52055928 0.0078130923            0   0.51274618    1.5164591    2.0370184    3.2332882 
19570000    1.0544235 -0.00012417423   0.48469399  0.031493247            0   0.45320074    1.5618649    2.0465588   -4.3111618 
19575000    1.0240408 -2.3292266e-05    0.4840597  0.023953761            0   0.46010594    1.5168604    2.0009201   0.80835605 
19580000    1.0595416 -3.4484229e-05   0.41550776 0.0011466444            0   0.41436111     1.569446    1.9849537   0.21936122 
19585000   0.94308886 -5.3655573e-05    0.5683195 0.0003482994            0    0.5679712    1.3969504    1.9652699  -0.78189545 
19590000    0.9961948 8.6239044e-05   0.48412425 0.0044866658            0   0.47963758    1.4756135    1.9597378    6.3751769 
19595000   0.95942044 8.1882967e-05   0.52188015  0.011835291            0   0.51004486    1.4211415    1.9430217    6.1354296 
19600000   0.97270102 -4.4718532e-05   0.50510035  0.023858016            0   0.48124233    1.4408134    1.9459137  -0.34367511 
19605000   0.99889231 1.1030135e-06    0.4911372  0.022797829            0   0.46833937    1.4796092    1.9707464    2.0272207 
19610000   0.93382648 3.8875142e-05   0.57337096 0.0020300737            0   0.57134088    1.3832305    1.9566014    3.9470087 
19615000   0.94753247 2.8297791e-05    0.5550428 0.00091125509            0   0.55413154    1.4035325    1.9585753    3.4074222 
19620000   0.97669146 1.3756954e-05   0.50390014  0.023170166            0   0.48072997    1.4467242    1.9506244    2.6549804 
19625000   0.88299017 -2.2589713e-05    0.6193824   0.10031407            0   0.51906833    1.3079292    1.9273116   0.77071828 
19630000   0.91228827 5.378851e-05   0.57114518  0.063334653            0   0.50781053     1.351327    1.9224722    4.6764439 
19635000   0.91874766 3.1933797e-05   0.54137577  0.059576946            0   0.48179882     1.360895    1.9022707    3.5372811 
19640000   0.94821574 4.4128005e-06   0.46920859  0.041216379            0   0.42799221    1.4045446    1.8737531    2.0996885 
19645000    0.9211461 -5.5690024e-05   0.50557685  0.018565482            0   0.48701137    1.3644477    1.8700245  -0.98130474 
19650000   0.84590602 -0.00012442098   0.61636022 0.0070117713            0   0.60934844    1.2529983    1.8693585   -4.5009957 
19655000    0.9418818 -4.4482265e-05   0.47820594 0.0085932863            0   0.46961265    1.3951624    1.8733683  -0.40412362 
19660000   0.91314719 2.468774e-05   0.51782492  0.011446031            0   0.50637889    1.3525993    1.8704242    3.1344365 
19665000   0.90993731 -1.0311277e-05   0.51990636 0.0046185074            0   0.51528785    1.3478446     1.867751    1.3398136 
19670000   0.95348883 7.0659947e-05   0.49179457 0.0043981655            0    0.4873964    1.4123553    1.9041499    5.5219392 
19675000   0.87179245 0.00012076783   0.60015707  0.016553471            0    0.5836036    1.2913426    1.8914996    8.0748126 
19680000   0.93525706 -1.8614798e-05   0.51543604  0.039615376            0   0.47582067    1.3853495    1.9007856   0.94770789 
19685000   0.91349625 -0.00014166292   0.53935913   0.02155142            0   0.51780771    1.3531163    1.8924755   -5.3606659 
19690000   0.87269109 -0.00014284884    0.6094446 0.0023725001            0    0.6070721    1.2926737    1.9021183   -5.4117424 
19695000   0.87464549 -6.2164291e-05   0.55997132 0.0019529135            0   0.55801841    1.2955686      1.85554   -1.3272717 
19700000   0.90548084 6.4287748e-05   0.47016133  0.017779871            0   0.45238145    1.3412435    1.8114048    5.1029375 
19705000   0.89206628 9.3387738e-05   0.48421952  0.011707701            0   0.47251181    1.3213732    1.8055927    6.5870449 
19710000   0.83476489 7.9675524e-05   0.56372179 0.0020102012            0   0.56171159    1.2364955    1.8002173    5.8796041 
19715000    0.8871704 0.00011429906   0.49688961 0.0010652113            0    0.4958244    1.3141212    1.8110108    7.6631225 
19720000   0.90880842 6.3504428e-05   0.47846032  0.013268974            0   0.46519134    1.3461725    1.8246328    5.0760595 
19725000   0.85144355 2.3451311e-05    0.5736236  0.019307642            0   0.55431596    1.2612008    1.8348244    3.0355315 
19730000   0.84985774 5.2742883e-06   0.60042865  0.044778793            0   0.55564986    1.2588518    1.8592804     2.129324 
19735000   0.87987388 5.2314026e-06   0.56855667  0.049483035            0   0.51907364    1.3033132    1.8718699    2.1397177 
19740000   0.92988707 5.4784515e-05   0.47051839  0.030329743            0   0.44018865    1.3773952    1.8479136    4.6528808 
19745000    0.8515779 -1.0333603e-05   0.56816194  0.081925195            0   0.48623675    1.2613998    1.8295617    1.3004812 
19750000   0.87656993 -3.790029e-05   0.53884012  0.018641811            0   0.52019831    1.2984192    1.8372593  -0.10323553 
19755000    0.9468512 -4.0170374e-05    0.3976699  0.020108249            0   0.37756165    1.4025233    1.8001932  -0.25652989 
19760000   0.85218009 -7.924254e-05   0.51878996  0.022316981            0   0.49647298    1.2622918    1.7810817   -2.2761363 
19765000   0.85907619 -6.3565195e-05    0.4899592 0.0068304876            0   0.48312871    1.2725066    1.7624658   -1.4920722 
19770000   0.84658745 -1.7763603e-05   0.48611506 0.0040425146            0   0.48207254    1.2540077    1.7401227   0.83062625 
19775000    0.8966441 6.0033851e-06   0.41618381   0.01059646            0   0.40558735    1.3281541    1.7443379    2.0517112 
19780000   0.81087298 -2.6647447e-05   0.53274987  0.018902102            0   0.51384777    1.2011056    1.7338555   0.36950618 
19785000   0.88246632 7.7996465e-06   0.44107543    0.0113641            0   0.42971133    1.3071532    1.7482287    2.1475706 
19790000   0.83445059 0.00010520087   0.49188644  0.018173668            0   0.47371277    1.2360299    1.7279164    7.1142008 
19795000   0.76610022 6.5764427e-05   0.58750647  0.055866664            0   0.53163981     1.134786    1.7222924    5.0894311 
19800000   0.83995264 3.7863049e-05   0.49574287  0.043231801            0   0.45251107    1.2441798    1.7399227    3.6785108 
19805000   0.89710837 -4.9698585e-05   0.43476044  0.030803002            0   0.40395744    1.3288418    1.7636022  -0.78096535 
19810000    0.8272669 -0.00020605371   0.53915422   0.03104526            0   0.50810896    1.2253891    1.7645433   -8.7854065 
19815000   0.85489078 -9.8322734e-05   0.49815432 0.0028579301            0   0.49529639     1.266307    1.7644613   -3.2696627 
19820000   0.84024187 2.6486212e-05   0.53557492 0.0061680525            0   0.52940687    1.2446083    1.7801832    3.1362772 
19825000   0.88784992 6.5051012e-05   0.49436525  0.013274015            0   0.48109124    1.3151277    1.8094929    5.1401048 
19830000   0.84658647 5.5554054e-05   0.56888243  0.016756322            0   0.55212611    1.2540062    1.8228886    4.6672562 
19835000     0.915974 0.00011417143   0.46391548  0.011399549            0   0.45251593    1.3567865     1.820702    7.6662789 
19840000   0.82601339 4.4787445e-05   0.56377528  0.012648887            0   0.55112639    1.2235323    1.7873076    4.0804248 
19845000   0.78371082 -2.9319529e-05   0.62327503  0.019818249            0   0.60345678    1.1608717    1.7841467   0.28298682 
19850000   0.87252719 -7.1826241e-06    0.5057799  0.012824155            0   0.49295575    1.2924309    1.7982108    1.4304604 
19855000   0.86174985 -4.7087125e-05   0.54196496  0.015603436            0   0.52636153     1.276467    1.8184319   -0.5924289 
19860000   0.89311542 -2.0362787e-06   0.47275198  0.020450926            0   0.45230106    1.3229272    1.7956792    1.6914217 
19865000   0.88240753 4.7629209e-05   0.47926906 0.0082209315            0   0.47104813    1.3070661    1.7863352    4.2249507 
19870000   0.92620915 7.8851108e-05   0.43248304 0.0069707578            0   0.42551228    1.3719473    1.8044303    5.8416071 
19875000   0.83389868 1.9901557e-05   0.56568965  0.014557227            0   0.55113243    1.2352124    1.8009021    2.8198618 
19880000   0.90812638 -8.3301227e-06   0.46136065  0.016457703            0   0.44490294    1.3451622    1.8065228    1.3800206 
19885000   0.85292243 -2.2795549e-05   0.52788881  0.037383296            0   0.49050551    1.2633913    1.7912802   0.62414805 
19890000   0.80583535 -5.7313123e-05   0.58946289  0.052394234            0   0.53706865    1.1936436    1.7831065   -1.1513254 
19895000   0.89085524 -4.1165764e-05   0.45520664  0.030457431            0   0.42474921    1.3195793     1.774786  -0.33290114 
19900000   0.83862457 2.5674174e-05   0.52715707  0.026183832            0   0.50097324    1.2422126    1.7693697    3.0838874 
19905000   0.88387106 7.3560872e-05   0.47927682  0.016692937            0   0.46258388     1.309234    1.7885108    5.5548275 
19910000   0.88645346 1.6536946e-05   0.47126574  0.014855393            0   0.45641034    1.3130592    1.7843249    2.6310166 
19915000   0.94297497 6.1530297e-05    0.3565912  0.001447879            0   0.35514332    1.3967817    1.7533729    4.9037241 
19920000   0.86839067 2.784879e-05   0.48874553 3.6823413e-08            0   0.48874549    1.2863037    1.7750492    3.2009073 
19925000   0.89615714 -2.4267988e-05   0.42690024 0.0012969443            0   0.42560329    1.3274328     1.754333   0.51181204 
19930000   0.85284388 4.7180128e-05   0.49966169  0.015073903            0   0.48458779     1.263275    1.7629367    4.1785593 
19935000   0.84789243 -1.4792812e-06   0.48516746  0.015704004            0   0.46946346    1.2559407    1.7411081    1.6653689 
19940000   0.90398456 -4.0317879e-06   0.42695486 0.0043728155            0   0.42258204    1.3390271     1.765982    1.5595545 
19945000   0.88524498 8.6551079e-05   0.44751867 0.0086546136            0   0.43886406    1.3112691    1.7587878    6.1902031 
19950000   0.86065331 2.1058007e-05   0.47205408  0.011950221            0   0.46010386    1.2748427    1.7468968    2.8250668 
19955000   0.88827089 -5.5202182e-05   0.46024635 0.0076623662            0   0.45258398    1.3157513    1.7759976   -1.0503541 
19960000    0.8813809 -0.00013011875    0.4773052 0.0011353617            0   0.47616983    1.3055455    1.7828507   -4.8792293 
19965000   0.91065052 -5.1853777e-05     0.422643 0.0021786155            0   0.42046439    1.3489011    1.7715441  -0.88336929 
19970000   0.84331215 0.00017113185   0.50658606 0.0026849826            0   0.50390107    1.2491561    1.7557422    10.517693 
19975000   0.92636201 7.2790859e-05   0.38302517 0.0070316116            0   0.37599356    1.3721737    1.7551989    5.4820909 
19980000    0.8941796 -6.6909782e-05   0.43790079  0.015560662            0   0.42234013    1.3245035    1.7624043   -1.6633765 
19985000   0.80401762 -6.7727031e-05   0.57329846 0.0041062016            0   0.56919226    1.1909511    1.7642496   -1.7033744 
19990000   0.90079241 -8.4402455e-05    0.4096806 0.0025888753            0   0.40709172    1.3342988    1.7439793   -2.5774264 
19995000    0.8918754 -3.0177111e-05   0.42102222 0.0059985667            0   0.41502365    1.3210904    1.7421127   0.19704455 
20000000   0.88844112 7.1506433e-05   0.38528058  0.016599619            0   0.36868096    1.3160034     1.701284    5.3624133 
Loop time of 207 on 1 procs for 20000000 steps with 80 atoms

Performance: 83478.290 tau/day, 96618.392 timesteps/s
98.7% CPU use with 1 MPI tasks x no OpenMP threads

MPI task timing breakdown:
Section |  min time  |  avg time  |  max time  |%varavg| %total
---------------------------------------------------------------
Pair    | 9.7516     | 9.7516     | 9.7516     |   0.0 |  4.71
Bond    | 29.166     | 29.166     | 29.166     |   0.0 | 14.09
Neigh   | 23.261     | 23.261     | 23.261     |   0.0 | 11.24
Comm    | 55.677     | 55.677     | 55.677     |   0.0 | 26.90
Output  | 0.52214    | 0.52214    | 0.52214    |   0.0 |  0.25
Modify  | 81.523     | 81.523     | 81.523     |   0.0 | 39.38
Other   |            | 7.099      |            |       |  3.43

Nlocal:        80.0000 ave          80 max          80 min
Histogram: 1 0 0 0 0 0 0 0 0 0
Nghost:        0.00000 ave           0 max           0 min
Histogram: 1 0 0 0 0 0 0 0 0 0
Neighs:        33.0000 ave          33 max          33 min
Histogram: 1 0 0 0 0 0 0 0 0 0

Total # of neighbors = 33
Ave neighs/atom = 0.4125
Ave special neighs/atom = 5.8500000
Neighbor list builds = 4015
Dangerous builds = 0
write_restart restart.equil
System init for write_restart ...
WARNING: Communication cutoff 1.4200000000000002 is shorter than a bond length based estimate of 1.8. This may lead to errors. (../comm.cpp:667)
#--------------End of Input file ------------------
Total wall time: 0:03:27
