LAMMPS (29 Oct 2020)
###################### polyelectrolyte complexation ######################
clear

#Initialization
#------------------------------------
units				lj
dimension			3
atom_style			full
boundary			p p p

#Atom Definition
#-------------------------------------
read_data			data.complexation
Reading data file ...
  orthogonal box = (-80.000000 -80.000000 -80.000000) to (80.000000 80.000000 80.000000)
  1 by 1 by 1 MPI processor grid
  reading atoms ...
  40 atoms
  scanning bonds ...
  1 = max bonds/atom
  reading bonds ...
  39 bonds
Finding 1-2 1-3 1-4 neighbors ...
  special bond factors lj:    0.0      0.0      0.0     
  special bond factors coul:  0.0      0.0      0.0     
     2 = max # of 1-2 neighbors
     2 = max # of 1-3 neighbors
     4 = max # of 1-4 neighbors
     6 = max # of special neighbors
  special bonds CPU = 0.000 seconds
  read_data CPU = 0.003 seconds

#Force definition
#----------------------------------------------
#Bond definition
bond_style			harmonic
bond_coeff			1 5000 1
#Pair definition
special_bonds	lj 0 1 1
Finding 1-2 1-3 1-4 neighbors ...
  special bond factors lj:    0.0      1.0      1.0     
  special bond factors coul:  0.0      0.0      0.0     
     2 = max # of 1-2 neighbors
     2 = max # of 1-3 neighbors
     4 = max # of 1-4 neighbors
     6 = max # of special neighbors
  special bonds CPU = 0.000 seconds
pair_style		 lj/cut 1.12
pair_modify 		 shift yes
pair_coeff	1 1 1 1 1.12

#Timestep etc
#--------------------------------------------
timestep		1e-05
run_style		verlet
velocity		all	create	1	10

#Fix
#---------------------------------------
group polymers type 1
40 atoms in group polymers
fix 1 all nve
fix 2 all langevin 1	1	10	10
fix 3 polymers recenter INIT INIT INIT units box

#Dump
#------------------------------------------------
compute  1 all gyration
variable  myRg2 equal c_1
variable  i equal step
fix  mythermofile all print 5000 "$i ${myRg2}" file radius_of_gyration.dat screen no

thermo_style		 custom step temp press pe evdwl ecoul ebond ke etotal enthalpy
thermo 	5000
dump	3 all custom 5000 dump.lammpstrj id mol type xu yu zu
run		20000000
Neighbor list info ...
  update every 1 steps, delay 10 steps, check yes
  max neighbors/atom: 2000, page size: 100000
  master list distance cutoff = 1.42
  ghost atom cutoff = 1.42
  binsize = 0.71, bins = 226 226 226
  1 neighbor lists, perpetual/occasional/extra = 1 0 0
  (1) pair lj/cut, perpetual
      attributes: half, newton on
      pair build: half/bin/newton
      stencil: half/bin/3d/newton
      bin: standard
WARNING: Communication cutoff 1.4200000000000002 is shorter than a bond length based estimate of 1.8. This may lead to errors. (../comm.cpp:667)
Per MPI rank memory allocation (min/avg/max) = 54.71 | 54.71 | 54.71 Mbytes
Step Temp Press PotEng E_vdwl E_coul E_bond KinEng TotEng Enthalpy 
       0            1 9.5214844e-06            0            0            0            0       1.4625       1.4625       2.4375 
    5000   0.80677291 -0.00012819697   0.26466669            0            0   0.26466669    1.1799054    1.4445721   -11.682798 
   10000   0.50912117 -0.00028749126   0.70815142            0            0   0.70815142   0.74458972    1.4527411   -27.986364 
   15000   0.72892907 -0.00011288503   0.42286747            0            0   0.42286747    1.0660588    1.4889262   -10.070501 
   20000   0.81695906 1.6628906e-05   0.30553214            0            0   0.30553214    1.1948026    1.5003348    3.2031348 
   25000   0.76178859 -0.00012274227   0.39054784            0            0   0.39054784    1.1141158    1.5046636   -11.064145 
   30000   0.74319391 -0.00013835429    0.3829433            0            0    0.3829433    1.0869211    1.4698644   -12.697615 
   35000   0.87770072 4.5248243e-05   0.21359432            0            0   0.21359432    1.2836373    1.4972316    6.1306517 
   40000   0.90445039 7.7611597e-05   0.23394217            0            0   0.23394217    1.3227587    1.5567009    9.5041284 
   45000   0.88691007 -6.5279816e-05   0.25839994            0            0   0.25839994     1.297106    1.5555059   -5.1291472 
   50000   0.78675338 -7.02485e-05   0.38793746            0            0   0.38793746    1.1506268    1.5385643   -5.6548822 
   55000   0.77735439 0.00011655995   0.40975909            0            0   0.40975909    1.1368808    1.5466399    13.482379 
   60000   0.84105213 8.0604117e-06    0.3198141            0            0    0.3198141    1.2300387    1.5498528     2.375239 
   65000    0.6578835 -0.00011303385   0.58551914            0            0   0.58551914   0.96215462    1.5476738   -10.026992 
   70000   0.75630857 7.2790706e-05   0.44109764            0            0   0.44109764    1.1061013    1.5471989    9.0009673 
   75000   0.83705895 5.3215063e-05   0.29152902            0            0   0.29152902    1.2241987    1.5157277    6.9649502 
   80000   0.78991129 -0.00011733462   0.41316046            0            0   0.41316046    1.1552453    1.5684057    -10.44666 
   85000   0.85273905 8.5635578e-05   0.33662401            0            0   0.33662401    1.2471309    1.5837549    10.352838 
   90000   0.90079013 2.904695e-05   0.24878642            0            0   0.24878642    1.3174056     1.566192    4.5405997 
   95000   0.79116356 -0.00011368264   0.40364388            0            0   0.40364388    1.1570767    1.5607206   -10.080382 
  100000   0.70198593 0.00015232665   0.53302023            0            0   0.53302023    1.0266544    1.5596747    17.157924 
  105000   0.75557288 -7.867501e-05   0.44951858            0            0   0.44951858    1.1050253    1.5545439   -6.5017771 
  110000   0.80407743 -1.9244359e-05   0.36290729            0            0   0.36290729    1.1759632    1.5388705  -0.43175185 
  115000   0.79176919 9.453657e-05   0.38427239            0            0   0.38427239    1.1579624    1.5422348     11.22278 
  120000   0.79406704 -0.00011246888   0.38480464            0            0   0.38480464     1.161323    1.5461277   -9.9706854 
  125000   0.87019988 2.2815482e-05   0.27799619            0            0   0.27799619    1.2726673    1.5506635    3.8869689 
  130000   0.81449507 7.5505469e-05   0.33643395            0            0   0.33643395     1.191199     1.527633    9.2593931 
  135000   0.70897934 -0.00012906563    0.4701177            0            0    0.4701177    1.0368823        1.507   -11.709321 
  140000   0.80398366 7.0875198e-05   0.34599208            0            0   0.34599208    1.1758261    1.5218182    8.7794384 
  145000   0.87583064 -2.8964786e-05   0.26019284            0            0   0.26019284    1.2809023    1.5410951    -1.424899 
  150000   0.86144691 -5.7614751e-05   0.31204684            0            0   0.31204684    1.2598661    1.5719129   -4.3278375 
  155000   0.82838422 0.00012386207   0.37066419            0            0   0.37066419    1.2115119    1.5821761    14.265652 
  160000   0.81868441 -0.00013050767   0.36324077            0            0   0.36324077     1.197326    1.5605667   -11.803419 
  165000   0.83923029 0.00014667632   0.36116593            0            0   0.36116593    1.2273743    1.5885402    16.608195 
  170000    0.8397342 -9.8783214e-05   0.39740621            0            0   0.39740621    1.2281113    1.6255175   -8.4898836 
  175000   0.80989361 0.0001023497   0.40442731            0            0   0.40442731    1.1844694    1.5888967    12.069506 
  180000   0.74894565 -8.3363995e-05    0.4746858            0            0    0.4746858     1.095333    1.5700188   -6.9664543 
  185000    0.7194625 0.00010007186   0.52096201            0            0   0.52096201    1.0522139    1.5731759    11.820534 
  190000   0.71783799 -5.4166935e-05   0.49204768            0            0   0.49204768    1.0498381    1.5418857   -4.0048085 
  195000   0.79203771 2.5114749e-05   0.38040211            0            0   0.38040211    1.1583552    1.5387573    4.1105076 
  200000   0.84403794 1.7223542e-05   0.30884674            0            0   0.30884674    1.2344055    1.5432522    3.3069429 
  205000   0.88114289 -2.0914863e-05   0.28675243            0            0   0.28675243    1.2886715    1.5754239  -0.56625812 
  210000   0.83842043 6.7650607e-05   0.38363915            0            0   0.38363915    1.2261899     1.609829    8.5372512 
  215000   0.77617071 -3.342262e-05   0.48335539            0            0   0.48335539    1.1351497     1.618505   -1.8039712 
  220000   0.75303636 1.9264184e-05   0.52049309            0            0   0.52049309    1.1013157    1.6218088    3.5944612 
  225000   0.74742428 -5.6218099e-05   0.55196285            0            0   0.55196285     1.093108    1.6450709   -4.1116624 
  230000   0.75108894 0.0001083968   0.55081256            0            0   0.55081256    1.0984676    1.6492801    12.749113 
  235000   0.72929369 -8.4002197e-05   0.55620112            0            0   0.55620112     1.066592    1.6227931   -6.9790319 
  240000   0.81554237 6.9120958e-05   0.41174585            0            0   0.41174585    1.1927307    1.6044766    8.6824626 
  245000    0.8664281 1.950776e-05   0.32349449            0            0   0.32349449    1.2671511    1.5906456    3.5882402 
  250000   0.89690864 -4.7348963e-05     0.292266            0            0     0.292266    1.3117289    1.6039949   -3.2445389 
  255000   0.89288865 5.5412081e-05    0.3293291            0            0    0.3293291    1.3058496    1.6351787    7.3093759 
  260000   0.80059391 -0.00011245011   0.47830029            0            0   0.47830029    1.1708686    1.6491689   -9.8657228 
  265000   0.83174269 3.7050394e-05   0.43676963            0            0   0.43676963    1.2164237    1.6531933    5.4471537 
  270000   0.83451061 1.5157117e-05   0.48518163            0            0   0.48518163    1.2204718    1.7056534    3.2577422 
  275000   0.86544057 -8.2457288e-05   0.45279502            0            0   0.45279502    1.2657068    1.7185019   -6.7251244 
  280000   0.87492068 0.00013013911   0.38706633            0            0   0.38706633    1.2795715    1.6666378    14.992882 
  285000   0.84753931 -0.00015065061   0.39568668            0            0   0.39568668    1.2395262    1.6352129   -13.791409 
  290000   0.76497964 9.1784264e-05    0.4777131            0            0    0.4777131    1.1187827    1.5964958    10.995205 
  295000   0.82310038 -2.9772023e-05   0.37983413            0            0   0.37983413    1.2037843    1.5836184   -1.4650368 
  300000   0.88041544 1.9232974e-06   0.29322654            0            0   0.29322654    1.2876076    1.5808341    1.7777798 
  305000   0.89429345 5.6941334e-05   0.28809596            0            0   0.28809596    1.3079042    1.5960001    7.4267927 
  310000   0.84842545 -2.7241381e-05   0.37156584            0            0   0.37156584    1.2408222    1.6123881   -1.1771293 
  315000   0.81101159 -1.5046935e-05   0.39383509 0.0093050221            0   0.38453006    1.1861044    1.5799395  0.039133361 
  320000   0.76806136 -1.1092551e-05   0.44954984  0.028164167            0   0.42138567    1.1232897    1.5728396   0.43696236 
  325000   0.78437652 0.00013185392    0.4141568  0.016182768            0   0.39797403    1.1471507    1.5613075    15.063149 
  330000   0.81460013 -6.696258e-05   0.38189283  0.002419125            0    0.3794737    1.1913527    1.5732455   -5.2837226 
  335000   0.76084106 1.594153e-05   0.48675704            0            0   0.48675704    1.1127301    1.5994871    3.2318997 
  340000    0.8901229 -5.25125e-05   0.30871523            0            0   0.30871523    1.3018047      1.61052     -3.76676 
  345000   0.74523079 1.7383724e-05   0.54239449            0            0   0.54239449       1.0899    1.6322945    3.4123879 
  350000   0.75901825 -4.2924892e-05   0.45720881            0            0   0.45720881    1.1100642     1.567273    -2.828236 
  355000   0.80456276 7.6624601e-05   0.38522205            0            0   0.38522205     1.176673    1.5618951    9.4082542 
  360000   0.85310503 -4.8225955e-05   0.35159232            0            0   0.35159232    1.2476661    1.5992584   -3.3390794 
  365000   0.71376944 4.3069472e-05   0.52863089            0            0   0.52863089    1.0438878    1.5725187    5.9828327 
  370000   0.81051042 1.2946731e-05   0.36753077 0.0033532458            0   0.36417752    1.1853715    1.5529023    2.8786475 
  375000   0.80297599 -3.7263841e-05   0.39807342 0.0081853148            0   0.38988811    1.1743524    1.5724258   -2.2433915 
  380000   0.70375025 4.6989505e-05   0.53923298 0.0032633827            0    0.5359696    1.0292347    1.5684677    6.3801931 
  385000   0.75105223 -7.8093228e-05   0.48537716 0.00027304169            0   0.48510412    1.0984139    1.5837911   -6.4129555 
  390000   0.81176853 9.0883511e-05   0.41523999 5.2053303e-05            0   0.41518793    1.1872115    1.6024515    10.908923 
  395000   0.83513484 -2.7517027e-05   0.39682714  0.001228727            0   0.39559841    1.2213847    1.6182118   -1.1995318 
  400000    0.7966115 6.0589951e-05   0.45469714 0.0025295304            0   0.45216761    1.1650443    1.6197415    7.8241524 
  405000   0.76648576 -7.1252799e-05   0.48259517 0.0019681936            0   0.48062697    1.1209854    1.6035806    -5.692706 
  410000   0.86045463 3.2099414e-05   0.33712756 5.5972355e-05            0   0.33707159    1.2584149    1.5955425    4.8825225 
  415000   0.77089352 -0.00010449056   0.43662912 0.0035343408            0   0.43309478    1.1274318    1.5640609    -9.135772 
  420000   0.74769936 9.5980751e-06   0.48129319  0.010631796            0    0.4706614    1.0935103    1.5748035    2.5576464 
  425000   0.80793378 -9.2029909e-05   0.36561728 0.0065847408            0   0.35903254    1.1816032    1.5472204   -7.8766422 
  430000   0.78676309 -1.0770169e-05   0.36382393 0.00032313989            0   0.36350079     1.150641    1.5144649   0.41159961 
  435000   0.72397944 2.595726e-05   0.45740892            0            0   0.45740892    1.0588199    1.5162289    4.1742523 
  440000   0.72310539 -7.1309516e-05   0.44108334            0            0   0.44108334    1.0575416     1.498625   -5.8034694 
  445000   0.75111277 1.0366676e-06   0.43871706 0.00043734248            0   0.43827972    1.0985024    1.5372195    1.6433743 
  450000   0.78999637 -4.9246385e-05   0.38551443 0.0020107507            0   0.38350368    1.1553697    1.5408841   -3.5019456 
  455000   0.72710021 3.2714961e-05   0.47937158 0.0031145586            0   0.47625702    1.0633841    1.5427556    4.8927677 
  460000   0.81398148 -3.7420666e-05   0.31696909  0.001379444            0   0.31558964    1.1904479     1.507417   -2.3244592 
  465000   0.68989172 1.0521967e-05   0.50930317 0.00012646631            0    0.5091767    1.0089666    1.5182698    2.5957192 
  470000   0.73326602 -7.0388805e-05   0.41213113            0            0   0.41213113    1.0724016    1.4845327   -5.7232809 
  475000   0.61449132 2.3039715e-05   0.58884531            0            0   0.58884531   0.89869356    1.4875389    3.8468056 
  480000     0.695003 -0.00010778445   0.43830043 0.0010864241            0   0.43721401    1.0164419    1.4547423    -9.582385 
  485000   0.67190427 0.00010872309   0.42459838 0.0022765256            0   0.42232185   0.98265999    1.4072584    12.540503 
  490000   0.63004155 4.4767771e-05   0.47515939  0.015219843            0   0.45993955   0.92143577    1.3965952    5.9808149 
  495000   0.74618469 1.9801655e-05   0.33189024 0.0010425492            0   0.33084769    1.0912951    1.4231854    3.4508748 
  500000   0.77314834 1.6375217e-05    0.2887225 4.7586994e-05            0   0.28867492    1.1307294     1.419452    3.0962742 
  505000   0.64445585 9.9533405e-05   0.47557261            0            0   0.47557261   0.94251669    1.4180893     11.61031 
  510000   0.73866127 -1.7601247e-05   0.32646924            0            0   0.32646924    1.0802921    1.4067614  -0.39560638 
  515000   0.71383954 2.1191598e-06    0.3439939 0.00028372105            0   0.34371018    1.0439903    1.3879842    1.6049862 
  520000   0.61477208 0.00012004329   0.49345485 0.0010890601            0   0.49236579   0.89910417     1.392559    13.684992 
  525000   0.63338405 -7.0286626e-05   0.48934529 0.0040086119            0   0.48533668   0.92632417    1.4156695   -5.7816811 
  530000   0.67947875 0.00010081589   0.44649003  0.011358431            0    0.4351316   0.99373767    1.4402277    11.763775 
  535000   0.77442398 3.4281472e-05   0.29834492  0.012832415            0   0.28551251    1.1325951      1.43094    4.9413627 
  540000   0.70144287 -1.4400083e-05   0.37640882 0.0047302249            0   0.37167859    1.0258602     1.402269 -0.072299532 
  545000   0.71486344 2.3567305e-05   0.33650037 0.0025537923            0   0.33394658    1.0454878    1.3819882    3.7952802 
  550000   0.71915706 -9.2044241e-05   0.34896152 0.0011916024            0   0.34776991    1.0517672    1.4007287   -8.0246016 
  555000   0.70491869 4.0685896e-05   0.39685241 0.0026185169            0   0.39423389    1.0309436     1.427796    5.5940317 
  560000   0.72121396 4.8092136e-06   0.39766633 0.0026143353            0     0.395052    1.0547754    1.4524418    1.9449052 
  565000   0.63649998 -3.412395e-05    0.5352499 0.0023716396            0   0.53287826   0.93088122    1.4661311   -2.0281614 
  570000   0.69908407 2.841562e-05   0.42922908 4.9836291e-05            0   0.42917924    1.0224105    1.4516395     4.361399 
  575000   0.78997916 -7.1671588e-05   0.29780219 5.5171448e-05            0   0.29774702    1.1553445    1.4531467   -5.8860239 
  580000   0.73892017 8.4774674e-05   0.36661199 0.00048614133            0   0.36612585    1.0806708    1.4472827    10.128209 
  585000   0.74660544 -3.4928082e-05   0.37914195 0.0097963236            0   0.36934563    1.0919105    1.4710524   -2.1055832 
  590000   0.77309416 -3.6365845e-05   0.29600799 0.0095324041            0   0.28647559    1.1306502    1.4266582   -2.2972043 
  595000   0.71371956 -5.388752e-06   0.39346231  0.012151588            0   0.38131072    1.0438149    1.4372772   0.88546897 
  600000   0.68578386 1.600876e-05    0.4242366  0.028411555            0   0.39582504    1.0029589    1.4271955    3.0664925 
  605000   0.66837065 9.3652867e-05   0.44723927  0.025270363            0   0.42196891   0.97749207    1.4247313    11.014785 
  610000   0.70893989 -0.00010856919   0.37665382 0.0070480619            0   0.36960576    1.0368246    1.4134784    -9.704007 
  615000   0.59163443 2.7520939e-05   0.57292215 0.0042141833            0   0.56870796   0.86526535    1.4381875    4.2563316 
  620000   0.73404404 -7.4923089e-05   0.39176277 0.0028250401            0   0.38893773    1.0735394    1.4653022   -6.2068221 
  625000   0.69807904 7.6125998e-05   0.46994447 0.0031988757            0    0.4667456    1.0209406    1.4908851    9.2861873 
  630000   0.73037754 -2.0842654e-05   0.43293565 0.0021107485            0    0.4308249    1.0681772    1.5011128  -0.63317499 
  635000   0.80838414 2.7296235e-05   0.34802695 0.00051233745            0   0.34751461    1.1822618    1.5302887    4.3254232 
  640000   0.75999505 -6.0443373e-05   0.42031429            0            0   0.42031429    1.1114928     1.531807   -4.6575943 
  645000   0.68197495 4.9190716e-05   0.50737038            0            0   0.50737038   0.99738837    1.5047588    6.5418881 
  650000   0.72721642 -6.7847901e-05   0.44283914            0            0   0.44283914     1.063554    1.5063932   -5.4412319 
  655000   0.76155204 1.6235615e-05   0.38742429            0            0   0.38742429    1.1137699    1.5011941    3.1637211 
  660000   0.87765221 3.253927e-05   0.20313805            0            0   0.20313805    1.2835664    1.4867044    4.8187256 
  665000   0.78414547 -1.6662166e-05   0.34869901            0            0   0.34869901    1.1468128    1.4955118  -0.21069402 
  670000   0.70000037 6.8707124e-05    0.4635359 0.0033772623            0   0.46015863    1.0237505    1.4872864     8.522896 
  675000   0.68261214 -7.5570934e-05   0.50246987  0.010930465            0    0.4915394   0.99832025    1.5007901   -6.2376735 
  680000   0.69081527 -1.852253e-05   0.48127402   0.01184635            0   0.46942767    1.0103173    1.4915914  -0.40511574 
  685000   0.83711851 -1.2149445e-05   0.25163217 0.0023312583            0   0.24930092    1.2242858     1.475918   0.23181483 
  690000   0.72956057 -5.0891182e-05   0.44982909 0.0012466668            0   0.44858242    1.0669823    1.5168114   -3.6944456 
  695000   0.75648543 1.7214916e-05   0.41411177 0.0019450303            0   0.41216674    1.1063599    1.5204717    3.2832791 
  700000   0.75513296 -5.1170884e-06   0.42336297 0.0025055502            0   0.42085742     1.104382    1.5277449    1.0037551 
  705000   0.87051728 7.1848652e-05   0.26129218 0.0046530347            0   0.25663915    1.2731315    1.5344237    8.8917257 
  710000   0.85014225 -5.1226229e-05   0.30737158 0.0091321757            0   0.29823941     1.243333    1.5507046   -3.6948612 
  715000   0.80681103 -9.0883191e-05   0.36287895 0.0050166057            0   0.35786235    1.1799611    1.5428401   -7.7635987 
  720000   0.78473413 -7.9097169e-05   0.46260444  0.010044559            0   0.45255988    1.1476737    1.6102781    -6.489272 
  725000   0.74959137 -0.0001015112   0.52976345 0.0077625376            0   0.52200091    1.0962774    1.6260408    -8.768706 
  730000   0.85197254 6.8728322e-05   0.38486901 0.0022261683            0   0.38264284    1.2460098    1.6308789     8.668659 
  735000   0.75831747 7.9197035e-06   0.53593503 0.0026900919            0   0.53324494    1.1090393    1.6449743     2.455952 
  740000   0.81934647 9.4130107e-05   0.44359508  0.015236854            0   0.42835823    1.1982942    1.6418893    11.280812 
  745000   0.91339368 -4.3827772e-05   0.33049422   0.03055475            0   0.29993947    1.3358382    1.6663325   -2.8216314 
  750000   0.86233047 -3.7821558e-05   0.42550895  0.021422311            0   0.40408664    1.2611583    1.6866673   -2.1862602 
  755000   0.96576823 -3.9929941e-05   0.32848627 0.0031376159            0   0.32534866     1.412436    1.7409223   -2.3479037 
  760000   0.84994309 2.8659825e-05   0.48954496 0.0023514924            0   0.48719347    1.2430418    1.7325867    4.6673528 
  765000   0.80335589 0.00011415787   0.51904059 0.0093151321            0   0.50972546     1.174908    1.6939486    13.383714 
  770000   0.85052381 -2.1670026e-05   0.40551652 0.0063731566            0   0.39914337    1.2438911    1.6494076  -0.56960305 
  775000   0.86949102 2.194574e-05   0.41990519 0.00093624397            0   0.41896894    1.2716306    1.6915358    3.9387796 
  780000   0.75635176 -2.9950523e-05   0.54384712 1.3991484e-05            0   0.54383313    1.1061644    1.6500116   -1.4169219 
  785000   0.84533907 4.7505516e-05   0.43695141 0.00090735063            0   0.43604406    1.2363084    1.6732598    6.5378247 
  790000   0.81485493 -0.00010862752   0.51681196 0.0062926985            0   0.51051927    1.1917253    1.7085373   -9.4149212 
  795000   0.82311313 -1.9130193e-05   0.50041869 0.0039145077            0   0.49650418     1.203803    1.7042216  -0.25471009 
  800000   0.85195659 3.4904562e-05   0.42928807 0.0055519781            0   0.42373609    1.2459865    1.6752746    5.2495017 
  805000   0.85612338 0.00010166868    0.3879036 0.0055283408            0   0.38237526    1.2520804     1.639984    12.050857 
  810000   0.81351397 -6.2584121e-05   0.45670151 0.0083416762            0   0.44835983    1.1897642    1.6464657   -4.7621483 
  815000   0.72364756 -5.9386616e-05   0.61173406 0.0098414841            0   0.60189257    1.0583346    1.6700686   -4.4111208 
  820000   0.77601282 -1.9793976e-06   0.51727378  0.013160635            0   0.50411314    1.1349187    1.6521925    1.4495022 
  825000   0.78837421 1.631595e-05   0.49671492  0.045106856            0   0.45160806    1.1529973    1.6497122    3.3204655 
  830000   0.87266058 1.6861211e-05   0.39038387  0.022132631            0   0.36825123    1.2762661      1.66665    3.3932379 
  835000   0.74778816 -2.4858396e-05   0.56298685 0.00079948919            0   0.56218736    1.0936402     1.656627  -0.88887272 
  840000   0.74832712 4.8431793e-05   0.57223114 0.0062291232            0   0.56600202    1.0944284    1.6666596    6.6260752 
  845000   0.84854465 -7.2241143e-05   0.40565415  0.014826317            0   0.39082783    1.2409966    1.6466507   -5.7508423 
  850000   0.79013511 -3.2157533e-05    0.4959232  0.016226867            0   0.47969633    1.1555726    1.6514958   -1.6414355 
  855000   0.84929089 4.3838852e-05   0.41185796  0.014282823            0   0.39757514    1.2420879    1.6539459    6.1430443 
  860000   0.66418039 -7.1093884e-06   0.65671571   0.01359511            0    0.6431206   0.97136382    1.6280795   0.90007816 
  865000   0.78551934 8.2915076e-05    0.4318084  0.018830942            0   0.41297746     1.148822    1.5806304    10.071134 
  870000   0.77615942 7.6170409e-05   0.45375465  0.010065146            0   0.44368951    1.1351331    1.5888878    9.3887377 
  875000   0.69538232 -5.2084413e-05   0.61828935 0.00044969842            0   0.61783966    1.0169966     1.635286   -3.6981579 
  880000   0.70580668 -4.2351261e-05   0.56040242 0.0043192686            0   0.55608315    1.0322423    1.5926447   -2.7441244 
  885000   0.79963463 2.4056866e-05   0.41270901  0.023938199            0   0.38877081    1.1694656    1.5821747    4.0455978 
  890000   0.76013221 -2.9387812e-05    0.4772734  0.025639813            0   0.45163359    1.1116934    1.5889668   -1.4203452 
  895000   0.71201892 1.5041712e-05   0.53746035 0.0052630379            0   0.53219731    1.0413277     1.578788    3.1190594 
  900000    0.7823487 -3.9049276e-05    0.4634118 0.0021777245            0   0.46123408     1.144185    1.6075968   -2.3910491 
  905000   0.83603088 -9.4664752e-05   0.37316924 0.0009866867            0   0.37218255    1.2226952    1.5958644   -8.0978062 
  910000   0.72534791 3.0670296e-05   0.52180183 0.00023843593            0    0.5215634    1.0608213    1.5826232    4.7232614 
  915000   0.74569204 6.0978789e-05   0.49971134 0.0090467734            0   0.49066456    1.0905746     1.590286    7.8345139 
  920000   0.79636393 2.2155854e-05   0.45147227  0.025010735            0   0.42646154    1.1646823    1.6161545    3.8849139 
  925000   0.78589494 -5.3795848e-05   0.51474178  0.017945997            0   0.49679579    1.1493714    1.6641131   -3.8445817 
  930000   0.75965457 -5.9698901e-05   0.56605036 0.0050641249            0   0.56098624    1.1109948    1.6770452   -4.4361223 
  935000   0.91337304 1.9026821e-05   0.36718469 0.00052649065            0    0.3666582    1.3358081    1.7029928    3.6513392 
  940000   0.74253316 -5.0264773e-05   0.60137875 0.00019161442            0   0.60118714    1.0859547    1.6873335   -3.4597792 
  945000   0.88175234 1.7742277e-08    0.4252113 0.00031833899            0   0.42489296    1.2895628    1.7147741    1.7165909 
  950000   0.84114963 6.1783481e-05   0.50128102 0.00055814622            0   0.50072287    1.2301813    1.7314623    8.0580909 
  955000   0.85538033 3.8159819e-05   0.48262035 0.0041210163            0   0.47849934    1.2509937    1.7336141    5.6411796 
  960000   0.86574117 0.0001190117   0.46841249    0.0117238            0   0.45668869    1.2661465    1.7345589    13.921357 
  965000   0.79832211 8.4508103e-05   0.56158175 0.0043969618            0   0.55718479    1.1675461    1.7291278    10.382758 
  970000   0.88167598 5.693838e-05   0.44262113 0.0045324712            0   0.43808866    1.2894511    1.7320722    7.5625623 
  975000   0.76717537 -2.1282977e-05   0.59759168  0.053916921            0   0.54367476     1.121994    1.7195857  -0.45979118 
  980000   0.85209389 -3.7868924e-06   0.47398697  0.034036831            0   0.43995013    1.2461873    1.7201743    1.3323965 
  985000    0.8528757 3.783093e-05   0.47343749   0.02402845            0   0.44940904    1.2473307    1.7207682    5.5946554 
  990000   0.80008231 -6.2924813e-05   0.54312488  0.022356563            0   0.52076832    1.1701204    1.7132453   -4.7302556 
  995000   0.89438695 4.6345952e-05   0.42055241  0.012305838            0   0.40824658    1.3080409    1.7285933    6.4744188 
 1000000   0.79589025 5.8404026e-05    0.5450393  0.005900252            0   0.53913905    1.1639895    1.7090288    7.6896011 
 1005000   0.89731223 -4.3147429e-05   0.39438397  0.018792075            0    0.3755919    1.3123191    1.7067031   -2.7115936 
 1010000   0.75421768 -6.1539791e-05   0.54498342  0.031475011            0   0.51350841    1.1030434    1.6480268   -4.6536478 
 1015000   0.77499146 -4.0101869e-05   0.54035225  0.023247665            0   0.51710458     1.133425    1.6737773   -2.4326541 
 1020000     0.825647 -3.9625645e-05   0.50601516 0.0056468172            0   0.50036834    1.2075087    1.7135239   -2.3441421 
 1025000    0.8646003 4.4653939e-05   0.47823174 0.00068293137            0    0.4775488    1.2644779    1.7427097     6.315273 
 1030000    0.9360408 5.9723846e-06    0.3717426 0.0012110155            0   0.37053158    1.3689597    1.7407023    2.3522745 
 1035000   0.88573602 1.8939105e-05   0.45518523            0            0   0.45518523    1.2953889    1.7505742    3.6899385 
 1040000    0.9641507 -2.1403429e-06   0.33134436            0            0   0.33134436    1.4100704    1.7414148    1.5222436 
 1045000   0.89097807 -8.3625115e-05    0.4680983            0            0    0.4680983    1.3030554    1.7711537   -6.7920581 
 1050000   0.83749909 6.4088028e-05   0.54587749            0            0   0.54587749    1.2248424    1.7707199    8.3333339 
 1055000    0.8691907 -1.6130884e-05   0.46734584 0.0097308333            0   0.45761501    1.2711914    1.7385372   0.08673474 
 1060000   0.86027117 3.0157653e-06    0.4594176  0.037964594            0   0.42145301    1.2581466    1.7175642    2.0263786 
 1065000   0.86700755 7.9342322e-05   0.44473619  0.014400523            0   0.43033566    1.2679985    1.7127347    9.8373885 
 1070000    0.7757605 -1.7865789e-05   0.57346255  0.033551056            0   0.53991149    1.1345497    1.7080123  -0.12144449 
 1075000   0.85942334 -1.422863e-05   0.40788281  0.015205052            0   0.39267776    1.2569066    1.6647895    0.2077777 
 1080000   0.81326146 9.4775207e-05   0.46915188 0.0068148354            0   0.46233705    1.1893949    1.6585468    11.363528 
 1085000   0.87371635 4.8690436e-05   0.38321009  0.013421101            0   0.36978899    1.2778102    1.6610203    6.6469209 
 1090000   0.73191378 1.7849273e-05   0.57977326  0.017425169            0   0.56234809    1.0704239    1.6501972    3.4779628 
 1095000   0.93595979 2.2193432e-05   0.32900509 0.0045843651            0   0.32442072    1.3688412    1.6978463    3.9704538 
 1100000   0.84507547 -3.8531734e-05   0.39628751 0.0010441542            0   0.39524336    1.2359229    1.6322104   -2.3134392 
 1105000   0.80404566 -6.5806352e-05   0.47945142 0.0049173282            0   0.47453409    1.1759168    1.6553682   -5.0832022 
 1110000   0.75498554 -7.4948617e-05   0.55349194 0.0038358394            0    0.5496561    1.1041663    1.6576583   -6.0170801 
 1115000   0.88279316 -5.9888665e-05   0.34071742 0.00095609201            0   0.33976133     1.291085    1.6318024   -4.5007968 
 1120000   0.81934668 -1.5814399e-05    0.4448006 0.0025894687            0   0.44221113    1.1982945    1.6430951  0.023700675 
 1125000   0.80930857 -4.895735e-05   0.47105583 0.0051181491            0   0.46593768    1.1836138    1.6546696    -3.358563 
 1130000   0.84776008 -5.4225676e-05   0.38847602 0.0052626733            0   0.38321335    1.2398491    1.6283251   -3.9243841 
 1135000   0.74439809 2.4689863e-06    0.5127973  0.065569359            0   0.44722794    1.0886822    1.6014795    1.8543037 
 1140000   0.81031339 -4.9812887e-05   0.39438625  0.052871799            0   0.34151445    1.1850833    1.5794696   -3.5213701 
 1145000   0.74790841 -7.1934834e-05   0.47587462  0.001973038            0   0.47390158    1.0938161    1.5696907   -5.7964364 
 1150000   0.80817917 2.8062949e-05   0.43191529 0.0019627924            0    0.4299525     1.181962    1.6138773    4.4875233 
 1155000   0.83093912 3.9846392e-05   0.39823998 0.0019952395            0   0.39624474    1.2152485    1.6134884     5.693759 
 1160000   0.80175337 -1.6207334e-05   0.43985011  0.030316353            0   0.40953375    1.1725643    1.6124144 -0.047216552 
 1165000   0.82477929 5.5923833e-06   0.42872896  0.030387743            0   0.39834122    1.2062397    1.6349687    2.2076287 
 1170000   0.80493171 3.4151912e-05   0.41431932 0.0057303644            0   0.40858895    1.1772126    1.5915319    5.0886877 
 1175000   0.87987486 -4.3786014e-05   0.32642226 2.9810352e-05            0   0.32639245     1.286817    1.6132392   -2.8704486 
 1180000   0.81864763 -9.7201209e-05   0.46740706 1.5351029e-05            0   0.46739171    1.1972722    1.6646792   -8.2887246 
 1185000   0.94417854 1.9213321e-06   0.30416364 0.0036722412            0   0.30049139    1.3808611    1.6850248    1.8817692 
 1190000   0.82972721 2.9170795e-05    0.4731434 0.0091236589            0   0.46401974     1.213476    1.6866194    4.6737089 
 1195000   0.94377178 -4.6692383e-05   0.32324802  0.014472307            0   0.30877571    1.3802662    1.7035142   -3.0777858 
 1200000    0.7888592 -4.9672256e-05   0.51966754  0.016409119            0   0.50325843    1.1537066    1.6733741   -3.4130648 
 1205000   0.80889648 -4.4307476e-05   0.47829763  0.012342179            0   0.46595545    1.1830111    1.6613087   -2.8757768 
 1210000   0.93854711 8.886189e-05   0.28964158 0.0022741666            0   0.28736742    1.3726252    1.6622667    10.761724 
 1215000   0.81178292 3.4367276e-05   0.48235242 6.1325272e-05            0   0.48229109    1.1872325    1.6695849     5.188794 
 1220000   0.83760412 -3.09106e-05   0.42198862            0            0   0.42198862     1.224996    1.6469846   -1.5182608 
 1225000   0.88774636 2.2331264e-05    0.3729095 0.00092139955            0    0.3719881    1.2983291    1.6712386      3.95796 
 1230000   0.94468463 2.0703091e-06   0.31973243 0.0026756522            0   0.31705677    1.3816013    1.7013337    1.9133334 
 1235000   0.88180912 2.087785e-06   0.42498437  0.033046306            0   0.39193807    1.2896458    1.7146302    1.9284194 
 1240000   0.79292383 -1.5038345e-05   0.53869495  0.034937652            0    0.5037573    1.1596511    1.6983461   0.15841952 
 1245000    0.8325592 -2.0167252e-05   0.46935713  0.013932861            0   0.45542427    1.2176178     1.686975  -0.37815162 
 1250000   0.93909164 1.369686e-05   0.31617189 0.0067669654            0   0.30940492    1.3734215    1.6895934    3.0921519 
 1255000   0.86486723 -1.2581384e-05    0.4289884  0.015294921            0   0.41369348    1.2648683    1.6938567     0.405523 
 1260000   0.91299989 -6.3223763e-05   0.36851413  0.025701788            0   0.34281234    1.3352623    1.7037765   -4.7703369 
 1265000   0.94385079 -3.5505851e-05   0.34131038  0.016634498            0   0.32467588    1.3803818    1.7216922    -1.914107 
 1270000   0.90732306 -6.5000874e-05    0.3803857 0.0095475363            0   0.37083816      1.32696    1.7073457   -4.9487438 
 1275000   0.83043664 -1.8064122e-05    0.5254936  0.013208677            0   0.51228492    1.2145136    1.7400072  -0.10975894 
 1280000   0.89662477 5.5418219e-05   0.40797292  0.052919641            0   0.35505328    1.3113137    1.7192866    7.3941123 
 1285000   0.90407788 -1.5811127e-05   0.39019001   0.05133254            0   0.33885747    1.3222139    1.7124039  0.093344559 
 1290000   0.91617391 3.6191812e-07   0.37339699   0.01572271            0   0.35767428    1.3399043    1.7133013    1.7503618 
 1295000   0.78929009 -3.1055225e-05   0.53016888  0.015848417            0   0.51432046    1.1543368    1.6845056   -1.4955494 
 1300000   0.88050309 3.0136221e-05   0.36820218  0.026036549            0   0.34216563    1.2877358    1.6559379     4.741887 
 1305000   0.83115541 4.6789717e-05   0.45693445  0.025342575            0   0.43159188    1.2155648    1.6724992    6.4637662 
 1310000    0.8720564 -7.1770002e-05   0.41664141  0.025275189            0   0.39136622    1.2753825    1.6920239   -5.6572243 
 1315000    0.9005788 -7.6818011e-05    0.3602669  0.018855736            0   0.34141116    1.3170965    1.6773634   -6.1888009 
 1320000   0.88924287 1.0968889e-05   0.38957598 0.0039999046            0   0.38557607    1.3005177    1.6900937    2.8133079 
 1325000   0.85448773 -1.2259246e-05    0.4409098 0.0074015615            0   0.43350824    1.2496883    1.6905981   0.43525132 
 1330000   0.97523541 -4.433956e-05   0.31083372  0.015836017            0    0.2949977    1.4262818    1.7371155   -2.8032554 
 1335000   0.86707347 -1.4018982e-05   0.48359357  0.026810734            0   0.45678283     1.268095    1.7516885    0.3161448 
 1340000   0.92551018 -0.00012494441   0.40302151  0.040136858            0   0.36288465    1.3535586    1.7565801   -11.037728 
 1345000   0.86475928 -0.0001175771   0.47750706  0.029680014            0   0.44782704    1.2647104    1.7422175   -10.297678 
 1350000   0.92411153 -7.3589828e-07   0.39072521  0.027015624            0   0.36370959    1.3515131    1.7422383    1.6668823 
 1355000   0.95522257 2.3427076e-05   0.33105979  0.039230206            0   0.29182958     1.397013    1.7280728    4.1270053 
 1360000   0.92428741 -1.5418622e-05   0.36851472  0.026472845            0   0.34204188    1.3517703    1.7202851   0.14141817 
 1365000   0.89148546 -4.6418161e-05   0.45263889  0.048552613            0   0.40408627    1.3037975    1.7564364   -2.9967833 
 1370000    0.9387886 -2.5018211e-05   0.39669837  0.010889458            0   0.38580892    1.3729783    1.7696767  -0.79218806 
 1375000   0.99967743 2.3540182e-06   0.28645481            0            0   0.28645481    1.4620282    1.7484831    1.9895345 
 1380000   0.91393471 -4.1901932e-05   0.46029461            0            0   0.46029461    1.3366295    1.7969241   -2.4938337 
 1385000   0.87488605 -6.8950063e-05   0.53385925            0            0   0.53385925    1.2795209    1.8133801   -5.2471064 
 1390000   0.92866718 3.7385185e-06   0.47668715 0.0030676986            0   0.47361945    1.3581758    1.8348629    2.2176872 
 1395000   0.97998915 4.5785981e-05   0.41973784  0.038379198            0   0.38135864    1.4332341     1.852972    6.5414565 
 1400000    1.0369385 2.1537051e-05   0.39222009  0.041812375            0   0.35040771    1.5165225    1.9087426    4.1141366 
 1405000   0.90959594 9.411337e-06   0.55799349  0.038429452            0   0.51956404    1.3302841    1.8882776    2.8519985 
 1410000   0.98296765 4.8670136e-05   0.42829675  0.044400088            0   0.38389666    1.4375902    1.8658869    6.8497089 
 1415000   0.85315617 8.5772429e-05   0.59762814  0.065236675            0   0.53239146    1.2477409     1.845369    10.628466 
 1420000   0.96460569 6.1148821e-05    0.3802411   0.03551367            0   0.34472743    1.4107358    1.7909769    8.0526162 
 1425000   0.89536385 3.3012743e-05   0.43560599 0.00074943579            0   0.43485656    1.3094696    1.7450756    5.1255805 
 1430000   0.94477401 2.2286633e-05   0.37259563 0.0017174502            0   0.37087818     1.381732    1.7543276    4.0364789 
 1435000   0.94518875 9.043343e-06   0.37213376  0.011521543            0   0.36061222    1.3823386    1.7544723    2.6805106 
 1440000   0.91630152 -5.580129e-05   0.45139529  0.055121315            0   0.39627397     1.340091    1.7914863   -3.9225658 
 1445000   0.83159132 -7.1870372e-05   0.59348337  0.039281375            0   0.55420199    1.2162023    1.8096857   -5.5498404 
 1450000    1.0282521 -2.0953462e-05    0.3757894  0.026903039            0   0.34888636    1.5038187    1.8796081  -0.26602637 
 1455000   0.88169975 -3.1657925e-05   0.57001516  0.056810106            0   0.51320505    1.2894859     1.859501   -1.3822705 
 1460000   0.97154416 -1.2177471e-05   0.47766586  0.029302628            0   0.44836324    1.4208833    1.8985492   0.65157621 
 1465000   0.91845663 6.4956048e-05    0.5823345  0.028641936            0   0.55369256    1.3432428    1.9255773    8.5770767 
 1470000    1.0155095 4.5345095e-06    0.4454446  0.026244723            0   0.41919987    1.4851827    1.9306273     2.394961 
 1475000   0.98686191 -5.4473735e-05   0.54884474 0.0089282246            0   0.53991651    1.4432855    1.9921303   -3.5859801 
 1480000    1.0253591 -1.5246819e-05   0.51463584 0.0054943894            0   0.50914145    1.4995876    2.0142235   0.45294916 
 1485000    1.0303401 -6.3607517e-05   0.51635329 0.0024055243            0   0.51394776    1.5068724    2.0232256   -4.4901841 
 1490000   0.96480643 -3.379532e-05    0.6046666  0.005876197            0    0.5987904    1.4110294     2.015696   -1.4449447 
 1495000    1.0494382 6.1595646e-05   0.47981558 0.0059915463            0   0.47382404    1.5348033    2.0146189    8.3220131 
 1500000    0.9580618 0.00011315162   0.58851933 0.0026617319            0    0.5858576    1.4011654    1.9896847     13.57641 
 1505000    1.0640775 5.4074446e-05   0.42151199 0.0068497703            0   0.41466222    1.5562133    1.9777253    7.5149486 
 1510000   0.97890002 -1.312468e-05   0.60363803  0.031197682            0   0.57244035    1.4316413    2.0352793   0.69131212 
 1515000   0.95679942 -1.5134385e-06   0.65491666  0.027706732            0   0.62720993    1.3993192    2.0542358    1.8992597 
 1520000   0.97993431 4.4939988e-05   0.62758388  0.055381316            0   0.57220256    1.4331539    2.0607378    6.6625926 
 1525000    1.0035304 6.0753193e-05   0.55150431  0.059947031            0   0.49155728    1.4676632    2.0191675    8.2402944 
 1530000   0.89728607 3.5643022e-05   0.72626108   0.03805315            0   0.68820793    1.3122809    2.0385419    5.6883874 
 1535000   0.98778263 4.3642199e-05   0.52903999 0.0074888621            0   0.52155113    1.4446321    1.9736721    6.4426333 
 1540000   0.95149553 8.0675177e-05    0.5534531  0.030061578            0   0.52339152    1.3915622    1.9450153    10.206153 
 1545000   0.97753662 1.8000379e-05   0.57207124  0.041825335            0   0.53024591    1.4296473    2.0017185    3.8449574 
 1550000    1.0525204 -3.366554e-05   0.48348505 0.0072099574            0   0.47627509    1.5393112    2.0227962   -1.4245551 
 1555000    1.0300039 1.2179946e-05   0.50843406 0.0061630101            0   0.50227105    1.5063807    2.0148148    3.2620412 
 1560000    1.0513025 -5.8928966e-07     0.464716  0.014075879            0   0.45064012    1.5375298    2.0022458    1.9419026 
 1565000    1.1013618 -2.1317423e-05   0.42515863  0.016264263            0   0.40889437    1.6107417    2.0359003  -0.14700377 
 1570000   0.96448523 -3.6119296e-05   0.66211932 0.0076930543            0   0.65442627    1.4105597     2.072679    -1.625937 
 1575000    1.0162192 -3.6892745e-05   0.56003108 0.00043373172            0   0.55959735    1.4862205    2.0462516   -1.7315655 
 1580000    1.1223051 -3.4229762e-05   0.39434523            0            0   0.39434523    1.6413711    2.0357164   -1.4694112 
 1585000   0.92924655 -3.1752142e-05   0.72977484            0            0   0.72977484    1.3590231    2.0887979   -1.1626214 
 1590000   0.91295801 2.001384e-06   0.76961123  0.037116979            0   0.73249425    1.3352011    2.1048123     2.309754 
 1595000    1.1236283  1.90612e-05   0.51471898  0.035697227            0   0.47902175    1.6433064    2.1580254    4.1098923 
 1600000    1.1435031 -2.1189774e-05   0.43950839 6.894488e-05            0   0.43943944    1.6723733    2.1118817 -0.057951131 
 1605000   0.97763352 -1.7599045e-05   0.67499891            0            0   0.67499891     1.429789    2.1047879   0.30264575 
 1610000    1.0435772 2.4333813e-05   0.56361464            0            0   0.56361464    1.5262316    2.0898463    4.5816287 
 1615000   0.99865909 2.4276965e-05   0.59737494 0.0032048106            0   0.59417013    1.4605389    2.0579139    4.5438751 
 1620000    1.0307124 3.423627e-05   0.53965925   0.00980573            0   0.52985352    1.5074169    2.0470762    5.5528702 
 1625000   0.91172674 3.4076123e-05   0.68747385 0.0016439637            0   0.68582989    1.3334004    2.0208742    5.5102692 
 1630000    1.0033676 3.0467636e-05   0.52060074 0.00081686675            0   0.51978388    1.4674252    1.9880259    5.1079119 
 1635000    0.9685645 -8.2319848e-06    0.5260484 0.0019661132            0   0.52408228    1.4165256     1.942574    1.0996187 
 1640000    1.0044707 -8.4438717e-06   0.46980612 0.0070280322            0   0.46277809    1.4690384    1.9388445     1.074192 
 1645000    0.8268563 2.9625651e-05    0.7387367  0.062237893            0   0.67649881    1.2092773     1.948014    4.9816807 
 1650000    0.9093331 -1.191783e-05   0.56159493  0.023933232            0   0.53766169    1.3298997    1.8914946   0.67110878 
 1655000   0.92754632 -3.9996933e-05   0.52396369  0.019148312            0   0.50481538    1.3565365    1.8805002   -2.2151857 
 1660000   0.83147706 -6.5154584e-05   0.65954043  0.013201907            0   0.64633853    1.2160352    1.8755756   -4.7962537 
 1665000   0.90144279 -4.2370478e-05   0.58248883  0.016570195            0   0.56591864    1.3183601    1.9008489   -2.4378881 
 1670000   0.98761247 3.0997531e-05   0.44778299  0.018757387            0    0.4290256    1.4443832    1.8921662    5.0663134 
 1675000   0.84483755 2.8972985e-05   0.63758127 0.0078705271            0   0.62971075    1.2355749    1.8731562    4.8399898 
 1680000   0.84352561 -4.2422738e-06   0.61540415 0.0024296347            0   0.61297452    1.2336562    1.8490604    1.4146515 
 1685000   0.93521199 -1.4211573e-05   0.47636124 0.00015639037            0   0.47620485    1.3677475    1.8441088   0.38884369 
 1690000   0.87615668 -3.4065183e-05   0.59944872 0.0011717816            0   0.59827693    1.2813791    1.8808279   -1.6074469 
 1695000    0.8202235 -4.8831009e-05   0.67122083  0.018338941            0   0.65288189    1.1995769    1.8707977   -3.1294976 
 1700000   0.90754123 -1.9515452e-05   0.57307413  0.035277242            0   0.53779689    1.3272791    1.9003532 -0.098029135 
 1705000   0.89662953 3.9255312e-05   0.59302903  0.018558003            0   0.57447102    1.3113207    1.9043497    5.9240937 
 1710000   0.97439895 1.7446284e-05   0.48167035 0.00026681301            0   0.48140353    1.4250585    1.9067288    3.6932283 
 1715000   0.87561789 -2.7460291e-05   0.64927009 0.0013752411            0   0.64789485    1.2805912    1.9298613   -0.8820725 
 1720000   0.90804009 -1.0503916e-05   0.58034312 0.0070177704            0   0.57332535    1.3280086    1.9083518   0.83275075 
 1725000   0.95033293 -3.8966009e-05   0.49117659  0.020983962            0   0.47019263    1.3898619    1.8810385   -2.1090808 
 1730000   0.91299101 -7.2729334e-05   0.53728976  0.033923607            0   0.50336615    1.3352494    1.8725391   -5.5749446 
 1735000    0.8186598 -6.8513721e-05   0.70121771 0.0075958287            0   0.69362188      1.19729    1.8985077   -5.1172973 
 1740000   0.83083493 1.0439387e-05   0.58957061            0            0   0.58957061    1.2150961    1.8046667    2.8736599 
 1745000    0.9571378 5.9209396e-05   0.42757129 0.00070158402            0   0.42686971     1.399814    1.8273853    7.8904275 
 1750000   0.85783633 2.2738669e-05    0.5862405  0.022828506            0     0.563412    1.2545856    1.8408261    4.1692658 
 1755000   0.79613084 -5.9225406e-05   0.68392691  0.020319759            0   0.66360715    1.1643414    1.8482683   -4.2164133 
 1760000   0.95840778 -3.0568778e-05     0.451254 0.00072083194            0   0.45053317    1.4016714    1.8529254   -1.2773175 
 1765000   0.80108428 -3.9648571e-06   0.64663853            0            0   0.64663853    1.1715858    1.8182243    1.4122229 
 1770000   0.79919729 -4.0530484e-05   0.61567894            0            0   0.61567894     1.168826     1.784505   -2.3658166 
 1775000   0.90098724 -7.9435145e-05   0.48664701            0            0   0.48664701    1.3176938    1.8043408    -6.329818 
 1780000   0.85968112 -5.6001638e-05    0.5251492            0            0    0.5251492    1.2572836    1.7824328   -3.9521349 
 1785000   0.85631563 6.078717e-06   0.51174426 0.00037822134            0   0.51136604    1.2523616    1.7641059    2.3865665 
 1790000    0.8789118 -8.0437104e-06   0.49574962 0.0021017746            0   0.49364785    1.2854085    1.7811581   0.95748218 
 1795000   0.87515704 -2.0911377e-06   0.47430236 0.0089510071            0   0.46535135    1.2799172    1.7542195     1.540087 
 1800000   0.85888712 8.2497314e-05   0.48576156  0.023977457            0   0.46178411    1.2561224     1.741884    10.189609 
 1805000   0.81870566 4.7752712e-05    0.5472862  0.022480315            0   0.52480589     1.197357    1.7446432     6.634521 
 1810000   0.85072827 -0.0001129848   0.49727581  0.046270746            0   0.45100507    1.2441901    1.7414659   -9.8281775 
 1815000   0.79796851 -7.1690577e-05   0.55553264 0.0051221613            0   0.55041048     1.167029    1.7225616   -5.6185535 
 1820000   0.78162234 -1.2168498e-05   0.56407204  0.008206863            0   0.55586517    1.1431227    1.7071947   0.46114051 
 1825000   0.81135433 -7.2945842e-05   0.51574058  0.014814787            0   0.50092579    1.1866057    1.7023463    -5.767308 
 1830000   0.83550685 -1.5968056e-06    0.4824379 0.0067483883            0   0.47568951    1.2219288    1.7043667    1.5408538 
 1835000    0.8702308 0.00010266628   0.41985813 0.00048629194            0   0.41937184    1.2727125    1.6925707    12.205597 
 1840000    0.8038173 5.842929e-05   0.47910659            0            0   0.47910659    1.1755828    1.6546894    7.6378487 
 1845000   0.90675234 9.7476731e-06   0.30633785            0            0   0.30633785    1.3261253    1.6324631    2.6306249 
 1850000   0.88544226 -2.4382161e-05   0.34803595            0            0   0.34803595    1.2949593    1.6429953  -0.85373804 
 1855000   0.80552802 -5.7969478e-05   0.47587917 0.0010090365            0   0.47487013    1.1780847    1.6539639   -4.2821107 
 1860000   0.79644075 -1.7375032e-05   0.47371703 0.0076989064            0   0.46601812    1.1647946    1.6385116  -0.14069164 
 1865000   0.73656227 2.0519333e-05   0.58736751 0.0093024429            0   0.57806507    1.0772223    1.6645898    3.7657695 
 1870000    0.8107011 2.3470718e-05   0.49923225   0.01033202            0   0.48890023    1.1856504    1.6848826    4.0882841 
 1875000   0.71303838 8.5104296e-07   0.63242601  0.023326291            0   0.60909972    1.0428186    1.6752446    1.7623914 
 1880000   0.85262719 3.8816644e-05   0.43053953  0.038307278            0   0.39223225    1.2469673    1.6775068    5.6523312 
 1885000   0.76622043 5.2725374e-05   0.54778286  0.028583714            0   0.51919915    1.1205974    1.6683802    7.0674585 
 1890000    0.7806436 8.9124456e-06   0.51009229  0.068500406            0   0.44159188    1.1416913    1.6517836     2.564418 
 1895000   0.82493984 -1.9573179e-05   0.45088397 0.0090943302            0   0.44178964    1.2064745    1.6573585  -0.34693505 
 1900000   0.78957623 -1.4494989e-05   0.51048017 0.0038487344            0   0.50663144    1.1547552    1.6652354   0.18094851 
 1905000   0.94239132 1.2721121e-05   0.27279561  0.015224967            0   0.25757064    1.3782473    1.6510429    2.9536857 
 1910000   0.69843664 4.2811213e-05   0.63343161   0.04000736            0   0.59342425    1.0214636    1.6548952    6.0387635 
 1915000   0.83691113 4.203528e-05   0.41718275  0.010732788            0   0.40644996    1.2239825    1.6411653    5.9455779 
 1920000   0.78332141 2.3016391e-05   0.48649901 0.0024151178            0   0.48408389    1.1456076    1.6321066     3.988985 
 1925000   0.76507936 1.6439932e-05   0.51715948  0.018991506            0   0.49816798    1.1189286     1.636088    3.3195371 
 1930000   0.80461925 3.7152526e-05   0.48839212  0.029703541            0   0.45868858    1.1767557    1.6651478    5.4695664 
 1935000    0.8278371 2.8183762e-05   0.43999844  0.054888266            0   0.38511017    1.2107118    1.6507102    4.5367275 
 1940000   0.78043537 -1.0844994e-05    0.5064952  0.083793501            0    0.4227017    1.1413867    1.6478819    0.5373545 
 1945000   0.90308689 5.7435311e-05   0.37224816   0.01411264            0   0.35813552    1.3207646    1.6930127    7.5743886 
 1950000   0.82899611 1.6332425e-05   0.46437769 0.0022777047            0   0.46209998    1.2124068    1.6767845    3.3492248 
 1955000   0.86613759 -1.164418e-05    0.4393648            0            0    0.4393648    1.2667262     1.706091     0.513727 
 1960000    0.8032512 7.5323138e-05   0.56241394            0            0   0.56241394    1.1747549    1.7371688    9.4502582 
 1965000   0.92095011 3.4775579e-05   0.35551137  4.49898e-05            0   0.35546638    1.3468895    1.7024009    5.2634201 
 1970000   0.86148126 -1.7110407e-05   0.40582701 0.0011745401            0   0.40465247    1.2599163    1.6657434  -0.08636227 
 1975000   0.83865879 -1.247867e-05   0.45049934 0.0056795172            0   0.44481982    1.2265385    1.6770378     0.399222 
 1980000   0.80679554 -3.2967715e-06   0.50689097  0.014515667            0   0.49237531    1.1799385    1.6868294      1.34924 
 1985000   0.82428512 -9.1433389e-06    0.4777244 0.0084293018            0    0.4692951     1.205517    1.6832414   0.74696349 
 1990000   0.94502949 -2.2702326e-05   0.36002947 0.00028642575            0   0.35974304    1.3821056    1.7421351  -0.58258312 
 1995000   0.86974628 -5.502409e-05   0.48946082 0.0080544981            0   0.48140632    1.2720039    1.7614648    -3.873002 
 2000000   0.87240827 -4.5683443e-05   0.50753504  0.016703138            0    0.4908319    1.2758971    1.7834321   -2.8945525 
 2005000   0.90382835 2.7728821e-05   0.50678192  0.023123044            0   0.48365888     1.321849    1.8286309    4.6680622 
 2010000   0.93104259 4.2608624e-05   0.50289141  0.038533899            0   0.46435751    1.3616498    1.8645412    6.2276643 
 2015000   0.93487213 3.5561079e-05   0.51361646  0.016398242            0   0.49721822    1.3672505    1.8808669    5.5223215 
 2020000    1.0046972 -3.1017213e-05    0.4882815  0.017337659            0   0.47094384    1.4693697    1.9576512   -1.2185114 
 2025000   0.99153104 -8.5615941e-06   0.54789319  0.021091286            0    0.5268019    1.4501141    1.9980073    1.1213001 
 2030000   0.92479695 0.00013603972   0.63211471  0.040407001            0   0.59170771    1.3525155    1.9846303    15.915098 
 2035000   0.97961338 4.7237081e-05   0.55130003  0.067397832            0    0.4839022    1.4326846    1.9839846    6.8210617 
 2040000    1.0045503 -7.9809365e-05   0.46353072  0.020825607            0   0.44270511    1.4691548    1.9326855   -6.2397935 
 2045000   0.97635984  3.14227e-05   0.46563794  0.010996959            0   0.45464098    1.4279263    1.8935642    5.1112487 
 2050000   0.96126431 -2.0765036e-06   0.50009053  0.014608855            0   0.48548168     1.405849    1.9059396    1.6933056 
 2055000     1.004374 5.4502482e-06   0.44124368 0.0032602493            0   0.43798343     1.468897    1.9101407    2.4682461 
 2060000   0.93979873 -2.6856832e-05   0.53448481            0            0   0.53448481    1.3744556    1.9089405  -0.84119912 
 2065000   0.94974073 -7.8052087e-05   0.53010743 0.00026965605            0   0.52983777    1.3889958    1.9191032   -6.0734305 
 2070000   0.96796885 2.8803062e-05   0.49150601  0.016958862            0   0.47454715    1.4156544    1.9071604     4.856594 
 2075000   0.88249755 -3.4110987e-05   0.60225531  0.039974317            0   0.56228099    1.2906527     1.892908   -1.6000571 
 2080000   0.92568475 -9.1864136e-05   0.54002833   0.04580932            0   0.49421901    1.3538139    1.8938423   -7.5130452 
 2085000   0.92812952 -2.6982901e-05   0.52408442  0.036626311            0   0.48745811    1.3573894    1.8814738  -0.88157522 
 2090000    0.9736506 -7.9377076e-06    0.4764874  0.012947109            0   0.46354029     1.423964    1.9004514    1.0876302 
 2095000   0.98607172 -5.6075429e-05   0.46366519  0.069376966            0   0.39428822    1.4421299    1.9057951   -3.8363289 
 2100000   0.83089432 -5.686703e-05   0.69139124  0.037830174            0   0.65356106    1.2151829    1.9065742   -3.9166097 
 2105000   0.92964837 3.1989245e-05   0.49650495  0.016352666            0   0.48015228    1.3596107    1.8561157    5.1318144 
 2110000   0.99916406 2.1547007e-05   0.35426529  0.013944283            0   0.34032101    1.4612774    1.8155427    4.0219562 
 2115000   0.86826407 2.1681494e-05    0.5579239  0.014147123            0   0.54377678    1.2698362    1.8277601     4.047945 
 2120000   0.90807108 -6.419205e-05   0.49966698 0.0083213143            0   0.49134566    1.3280539    1.8277209    -4.745545 
 2125000   0.89442258 -1.4736158e-05   0.50310005 0.0055229029            0   0.49757715     1.308093    1.8111931   0.30221051 
 2130000   0.90492248 -2.0627683e-05    0.4769958 0.0024868984            0   0.47450891    1.3234491    1.8004449  -0.31182976 
 2135000   0.93706302 -1.061389e-05   0.41847617            0            0   0.41847617    1.3704547    1.7889308   0.70206852 
 2140000   0.94704289 7.2779172e-05   0.41811606  0.002863007            0   0.41525305    1.3850502    1.8031663    9.2557535 
 2145000   0.82555314 4.6587871e-06   0.59927056  0.014001973            0   0.58526858    1.2073715     1.806642    2.2837018 
 2150000     0.927924 3.9611388e-05    0.4397222   0.01436565            0   0.42535655    1.3570888     1.796811    5.8530171 
 2155000   0.92764615 -5.6787972e-05   0.50368217 0.0039054771            0   0.49977669    1.3566825    1.8603647   -3.9547237 
 2160000   0.90676405 1.0582162e-05   0.53775585  0.017384495            0   0.52037135    1.3261424    1.8638983    2.9475116 
 2165000   0.88719828 -6.8627148e-06   0.56602244  0.014877829            0   0.55114461    1.2975275    1.8635499    1.1608079 
 2170000   0.96887969 0.00015153156   0.47646303 0.0024982715            0   0.47396476    1.4169866    1.8934496    17.410281 
 2175000   0.93689628 4.8781445e-05   0.54412289 0.00096071001            0   0.54316218    1.3702108    1.9143337    6.9095537 
 2180000   0.96118175 -1.9651793e-05   0.51535871 0.0012172082            0    0.5141415    1.4057283     1.921087 -0.091256583 
 2185000   0.93180852 2.0433276e-05   0.52659302  0.020885787            0   0.50570723      1.36277     1.889363    3.9817305 
 2190000   0.95873763 -6.4643023e-05   0.53512783  0.044089244            0   0.49103858    1.4021538    1.9372816    -4.682164 
 2195000    1.0095269 -4.3227714e-05   0.52359741  0.018302544            0   0.50529486    1.4764331    2.0000305   -2.4264874 
 2200000   0.98736708 2.1778348e-05   0.55544987 0.0063006163            0   0.54914926    1.4440244    1.9994742    4.2295771 
 2205000   0.95590998 1.300899e-06   0.56728001  0.013648304            0   0.55363171    1.3980183    1.9652984    2.0985104 
 2210000    0.8708098    8.751e-06   0.65655378  0.019374554            0   0.63717923    1.2735593    1.9301131    2.8262155 
 2215000   0.98184243 8.7976607e-06   0.51753712  0.014791125            0   0.50274599    1.4359446    1.9534817    2.8543621 
 2220000   0.88353659 4.018125e-06   0.64411197  0.020933143            0   0.62317883    1.2921723    1.9362842    2.3477402 
 2225000   0.95348367 2.6045635e-05   0.51365313  0.029364245            0   0.48428889    1.3944699     1.908123     4.575196 
 2230000    1.0314609 -3.5995335e-05   0.38232384  0.028831207            0   0.35349263    1.5085116    1.8908355   -1.7950868 
 2235000   0.96184698 -4.8477033e-05   0.50605847  0.014471759            0   0.49158671    1.4067012    1.9127597   -3.0512885 
 2240000   0.84043555 1.7089859e-05   0.66163606  0.012369149            0   0.64926691     1.229137     1.890773    3.6407746 
 2245000   0.93225215 5.7662043e-05   0.47838215  0.013202306            0   0.46517984    1.3634188    1.8418009    7.7463942 
 2250000   0.91797352 -2.5188131e-05   0.50498488 0.0029465112            0   0.50203837    1.3425363    1.8475212  -0.73174349 
 2255000   0.87828787 -0.00011826782   0.56455857 0.0023991851            0   0.56215939     1.284496    1.8490546    -10.26157 
 2260000    0.8289039 -0.00010102208   0.67995662  0.022488347            0   0.65746827     1.212272    1.8922286   -8.4524322 
 2265000   0.99366848 -2.2800618e-05    0.4291683  0.021091513            0   0.40807679    1.4532402    1.8824085  -0.45237484 
 2270000   0.93962395 1.2507185e-05   0.53998817 0.0032916993            0   0.53669647       1.3742    1.9141882    3.1949239 
 2275000    1.0464518 -1.0123255e-05   0.32932338 0.0010849808            0    0.3282384    1.5304358    1.8597591   0.82313785 
 2280000   0.92112329 -5.2753174e-05   0.50554021 0.0010975027            0   0.50444271    1.3471428     1.852683   -3.5492419 
 2285000   0.81282535 -2.6752925e-05    0.6313428 0.0013912567            0   0.62995155    1.1887571    1.8200999  -0.91939961 
 2290000   0.92455302 6.3066817e-05   0.44050159 0.0014459013            0   0.43905568    1.3521588    1.7926604    8.2507024 
 2295000   0.93950149 6.3307693e-05   0.39652822 0.0038033574            0   0.39272486    1.3740209    1.7705492    8.2532569 
 2300000   0.85275485 -1.2858394e-05   0.55911567  0.012082964            0   0.54703271     1.247154    1.8062696   0.48957008 
 2305000   0.86157126 -1.3923603e-05   0.54498437  0.012175463            0   0.53280891     1.260048    1.8050323   0.37925537 
 2310000    0.9018678 2.9348072e-05   0.46373925 0.0013347863            0   0.46240447    1.3189817    1.7827209    4.7879635 
 2315000   0.93038741 4.198156e-05   0.40531254            0            0   0.40531254    1.3606916    1.7660041    6.0649159 
 2320000   0.86478035 -1.4866367e-05   0.51896498 0.00054702361            0   0.51841796    1.2647413    1.7837062   0.26139026 
 2325000   0.97231834 1.312184e-06   0.34599238 0.0071016124            0   0.33889077    1.4220156     1.768008    1.9023756 
 2330000   0.88534173 6.7609836e-06   0.47019446  0.011699056            0    0.4584954    1.2948123    1.7650067    2.4573314 
 2335000   0.84646919 2.5326635e-05   0.52988906  0.012779299            0   0.51710976    1.2379612    1.7678503    4.3612977 
 2340000   0.88440205 -1.6114242e-05   0.43259563  0.028755597            0   0.40384004     1.293438    1.7260336  0.075935223 
 2345000   0.85847925 3.8748644e-05   0.46337798  0.060599678            0    0.4027783    1.2555259    1.7189039    5.6867651 
 2350000   0.84178003 7.1184124e-05   0.49212588  0.018910329            0   0.47321555    1.2311033    1.7232292    9.0124835 
 2355000   0.89118769 7.5289849e-05   0.44212298 0.00018239775            0   0.44194058     1.303362     1.745485    9.4551655 
 2360000   0.88564801 3.8092973e-06   0.46303694 0.0028871611            0   0.46014978    1.2952602    1.7582972    2.1483692 
 2365000   0.89475826 -3.4619169e-05   0.44276284 0.0029418783            0   0.43982096     1.308584    1.7513468   -1.7936561 
 2370000   0.94811782 -3.299668e-05   0.36559781 0.00038574863            0   0.36521206    1.3866223    1.7522201   -1.6266399 
 2375000   0.91840164 2.3799004e-05   0.44878027            0            0   0.44878027    1.3431624    1.7919427    4.2289606 
 2380000    0.9214404 -4.2082683e-05   0.43526737 0.00031397345            0   0.43495339    1.3476066     1.782874   -2.5263928 
 2385000     0.919845 -3.9917602e-05   0.49771424 0.0051281992            0   0.49258604    1.3452733    1.8429875   -2.2445749 
 2390000   0.97267334 3.7590797e-05   0.44257712 0.0087494364            0   0.43382768    1.4225348    1.8651119    5.7144095 
 2395000   0.94614479 -7.407144e-05    0.4412417  0.010651092            0   0.43059061    1.3837368    1.8249785    -5.759937 
 2400000   0.95209669 -7.0959604e-05   0.43367144  0.012301138            0    0.4213703    1.3924414    1.8261129   -5.4401506 
 2405000   0.92808015 -7.7988817e-06   0.48368842  0.005722721            0    0.4779657    1.3573172    1.8410056    1.0424002 
 2410000   0.94915475 -9.574831e-05   0.41100526 0.0020601917            0   0.40894507    1.3881388    1.7991441   -8.0054829 
 2415000   0.93557786 -4.4759213e-05   0.41930049  0.011656087            0    0.4076444    1.3682826    1.7875831   -2.7957603 
 2420000   0.99760606 1.905569e-05   0.34358706  0.034248957            0    0.3093381    1.4589989    1.8025859    3.7538886 
 2425000   0.96607437 3.1269244e-05    0.4480355  0.022778025            0   0.42525748    1.4128838    1.8609193    5.0628898 
 2430000   0.97595358 4.0325262e-05   0.42707852 0.0048241034            0   0.42225442    1.4273321    1.8544106    5.9837175 
 2435000   0.91232523 -6.487453e-05    0.5121608 0.00091295744            0   0.51124784    1.3342756    1.8464364   -4.7967154 
 2440000   0.94286024 -5.6869367e-05    0.4773372  0.002504491            0   0.47483271    1.3789331    1.8562703   -3.9671528 
 2445000   0.93562601 6.9938624e-05   0.43369832  0.027306412            0   0.40639191     1.368353    1.8020514    8.9637665 
 2450000   0.90793867 5.8236071e-06   0.48952306  0.014525018            0   0.47499805    1.3278603    1.8173834    2.4137207 
 2455000   0.97679296 3.0963264e-05   0.47310407            0            0   0.47310407    1.4285597    1.9016638     5.072302 
 2460000    1.0071559 -4.562196e-05   0.45056965            0            0   0.45056965    1.4729655    1.9235351   -2.7481536 
 2465000    1.1156062 -3.5427119e-05   0.26746749  0.005778022            0   0.26168947    1.6315741    1.8990416   -1.7286954 
 2470000    1.0702254 9.2345411e-05   0.32783126  0.025723222            0   0.30210804    1.5652046    1.8930358    11.349206 
 2475000    1.0550599 3.8774705e-05   0.37536864 0.0094824884            0   0.36588615    1.5430251    1.9183937    5.8889235 
 2480000     0.965192 1.3033992e-05   0.48317651            0            0   0.48317651    1.4115933    1.8947698    3.2294506 
 2485000    1.0715685 6.2401748e-05   0.38397197            0            0   0.38397197    1.5671689    1.9511408    8.3410799 
 2490000    1.0726465 -3.5979955e-06   0.36966719 0.0011218008            0   0.36854539    1.5687455    1.9384127    1.5699779 
 2495000    1.0548897 1.0749324e-05   0.39176143  0.050573112            0   0.34118832    1.5427761    1.9345376    3.0352684 
 2500000   0.95119784 2.4772558e-05   0.57773761  0.053779523            0   0.52395809    1.3911268    1.9688645    4.5055744 
 2505000    1.0912514 4.6402278e-05   0.40691361 0.0057935483            0   0.40112006    1.5959551    2.0028687     6.754462 
 2510000    1.1191632 -1.2674883e-05   0.35599242            0            0   0.35599242    1.6367761    1.9927686   0.69486054 
 2515000    1.1269253 -2.3764478e-05   0.33753401            0            0   0.33753401    1.6481283    1.9856623  -0.44782018 
 2520000     1.052265 2.2560536e-05   0.40511786            0            0   0.40511786    1.5389376    1.9440555    4.2542543 
 2525000    1.0197053 1.5178296e-06   0.42829015 0.00016445111            0    0.4281257    1.4913191    1.9196092     2.075035 
 2530000   0.98002196 3.1564587e-06   0.49708236 0.0097480824            0   0.48733428    1.4332821    1.9303645    2.2535859 
 2535000    1.0212952 2.3589484e-05    0.3854203  0.039805072            0   0.34561523    1.4936443    1.8790646    4.2946277 
 2540000   0.98727304 -4.0418237e-05   0.44143539  0.073486087            0    0.3679493    1.4438868    1.8853222   -2.2535053 
 2545000    1.0259069 -3.7561301e-05   0.33456104  0.013168522            0   0.32139252    1.5003888    1.8349498   -2.0113274 
 2550000    0.9183728 1.4357765e-05   0.50529513  0.042297948            0   0.46299718    1.3431202    1.8484154    3.3186504 
 2555000   0.91165602 2.698975e-05   0.54499634  0.052161524            0   0.49283482    1.3332969    1.8782933    4.6420437 
 2560000   0.99448055 1.3495515e-07   0.40792861  0.033068251            0   0.37486036    1.4544278    1.8623564    1.8761758 
 2565000   0.98740362 4.226055e-05    0.3810174  0.012480884            0   0.36853652    1.4440778    1.8250952    6.1525755 
 2570000   0.99730476 4.9177613e-05   0.41169815  0.011257635            0   0.40044051    1.4585582    1.8702564    6.9060439 
 2575000    1.0132051 5.7958822e-05   0.37489288 0.0032053766            0    0.3716875    1.4818124    1.8567053    7.7916887 
 2580000    1.0089382 -1.2833902e-05   0.37923633            0            0   0.37923633    1.4755722    1.8548085   0.54061699 
 2585000     1.011281 -3.4276021e-05   0.40572164            0            0   0.40572164    1.4789985    1.8847202   -1.6251444 
 2590000    1.0003097 -3.9050775e-06   0.41510602            0            0   0.41510602     1.462953     1.878059    1.4781791 
 2595000    1.0453886 1.7368359e-05   0.34748703 0.0001398669            0   0.34734716    1.5288808    1.8763678    3.6548878 
 2600000   0.98489776 7.066745e-05   0.40916297 0.0060953055            0   0.40306767     1.440413     1.849576    9.0859228 
 2605000    1.0024784 1.2095828e-05     0.378103  0.014273646            0   0.36382936    1.4661247    1.8442277    3.0828404 
 2610000    1.0324302 4.8850764e-05   0.35901545  0.014910165            0   0.34410529    1.5099291    1.8689446    6.8712628 
 2615000   0.95953374 -8.2497377e-05   0.44204958  0.019787677            0    0.4222619    1.4033181    1.8453677   -6.6023637 
 2620000    1.0404557 -7.5811789e-05   0.39040289 0.0021407709            0   0.38826212    1.5216664    1.9120693   -5.8510578 
 2625000    1.0390925 2.9904337e-05   0.35432041            0            0   0.35432041    1.5196727    1.8739932    4.9361973 
 2630000    1.0241027 -2.0522449e-05   0.35081342            0            0   0.35081342    1.4977502    1.8485637   -0.2529351 
 2635000   0.95378668 1.0042309e-05   0.40701966            0            0   0.40701966     1.394913    1.8019327    2.8302651 
 2640000   0.92950694 -5.8498085e-05   0.41597933            0            0   0.41597933    1.3594039    1.7753832   -4.2148206 
 2645000   0.93104599 -4.4087636e-05   0.44298411            0            0   0.44298411    1.3616548    1.8046389    -2.709935 
 2650000   0.98813413 -4.4871587e-06   0.38927847            0            0   0.38927847    1.4451462    1.8344246    1.3749396 
 2655000   0.97952607 -6.5622389e-05   0.38368962 0.0049192582            0   0.37877036    1.4325569    1.8162465   -4.9034861 
 2660000   0.95885863 -7.9912383e-05   0.40757381  0.043080547            0   0.36449326    1.4023307    1.8099046   -6.3731234 
 2665000    0.8824922 -5.4393727e-05   0.49294818  0.046541832            0   0.44640635    1.2906448     1.783593   -3.7863246 
 2670000    1.0260334 3.0015866e-05   0.28837435  0.031091272            0   0.25728308    1.5005738    1.7889481    4.8625728 
 2675000   0.88839122 -2.7290628e-05   0.47696808   0.01567177            0   0.46129631    1.2992722    1.7762402     -1.01832 
 2680000    1.0212508 2.7967711e-05    0.3360789   0.01587032            0   0.32020858    1.4935793    1.8296582    4.6935517 
 2685000   0.93237766 5.3379543e-05   0.45819947 0.0072776595            0   0.45092181    1.3636023    1.8218018     7.287867 
 2690000    1.0249672 6.5326921e-06    0.3564382 0.00016470831            0   0.35627349    1.4990145    1.8554527    2.5244004 
 2695000   0.97170179 5.0308662e-06   0.45302013            0            0   0.45302013    1.4211139     1.874134    2.3892947 
 2700000    1.0254973 3.6013321e-05   0.38529933            0            0   0.38529933    1.4997898    1.8850891    5.5728532 
 2705000     1.018238 1.9148842e-05   0.40155819            0            0   0.40155819     1.489173    1.8907312    3.8515726 
 2710000      1.04948 -2.9098963e-05   0.33796991 0.0037263673            0   0.33424354    1.5348645    1.8728344   -1.1068994 
 2715000   0.96171097 -3.5275684e-05   0.44725232  0.023602832            0   0.42364949    1.4065023    1.8537546   -1.7584754 
 2720000    1.0010139 -5.0538632e-05   0.39095548  0.012883509            0   0.37807197    1.4639828    1.8549383   -3.3202177 
 2725000    1.0317333 -1.1477204e-05   0.30513495 0.0016917587            0   0.30344319    1.5089099    1.8140448   0.63877917 
 2730000   0.98744306 3.5912417e-05   0.33793043 0.00010238269            0   0.33782805    1.4441355    1.7820659    5.4594974 
 2735000   0.96855646 6.0358447e-05   0.41234927 0.0028467029            0   0.40950257    1.4165138    1.8288631    8.0095681 
 2740000   0.97380476 2.9246749e-05   0.41322167 0.0090669506            0   0.40415472    1.4241895    1.8374111    4.8322782 
 2745000    0.9678006 -5.7364553e-05    0.4542818  0.022069547            0   0.43221225    1.4154084    1.8696902     -4.00444 
 2750000   0.93876749 -6.2430972e-05   0.50908543  0.048403185            0   0.46068224    1.3729474    1.8820329   -4.5108987 
 2755000    1.0156717 3.9492721e-05   0.39573584  0.013732093            0   0.38200375    1.4854199    1.8811557    5.9252104 
 2760000    1.0496205 6.9383497e-05   0.37352398  0.023279609            0   0.35024437      1.53507     1.908594    9.0134641 
 2765000    1.0577673 5.4909939e-06   0.34770434  0.046226918            0   0.30147743    1.5469846     1.894689    2.4569667 
 2770000    1.0428814 -7.0647164e-05    0.3691811   0.02269148            0   0.34648962     1.525214    1.8943951   -5.3398745 
 2775000    1.0110576 -5.905755e-05   0.39993889  0.015590095            0    0.3843488    1.4786717    1.8786106   -4.1688826 
 2780000    1.0094586 -3.5731742e-05   0.40896046 0.0022884266            0   0.40667203    1.4763332    1.8852937   -1.7736367 
 2785000    1.0459957 -2.6626318e-06   0.35740702            0            0   0.35740702    1.5297687    1.8871757    1.6145222 
 2790000    1.0296072 5.6294769e-05   0.33135861 0.00015227947            0   0.33120633    1.5058006    1.8371592    7.6017436 
 2795000   0.96000939 2.6165697e-05   0.41271894 0.0099770126            0   0.40274192    1.4040137    1.8167327    4.4961001 
 2800000     1.002639 -1.3398262e-05   0.36242702  0.020001608            0   0.34242541    1.4663595    1.8287865   0.45680448 
 2805000   0.96767342 -3.3179214e-05   0.39032354 0.0040868736            0   0.38623667    1.4152224    1.8055459   -1.5920056 
 2810000   0.94603796 1.6166858e-05   0.43073028 0.0084096623            0   0.42232061    1.3835805    1.8143108     3.469797 
 2815000   0.93775385 1.7011187e-05   0.40742741  0.032754125            0   0.37467329     1.371465    1.7788924     3.520838 
 2820000   0.96803001 -5.918721e-05   0.39876215  0.016658085            0   0.38210406    1.4157439     1.814506   -4.2462643 
 2825000   0.95724911 -4.4493267e-05   0.43281883  0.033366206            0   0.39945262    1.3999768    1.8327957   -2.7233148 
 2830000    1.0026183 -2.4645719e-05   0.37159794  0.019474142            0    0.3521238    1.4663293    1.8379272   -0.6857944 
 2835000    1.0162631 2.7051624e-05   0.33451688 0.0079379318            0   0.32657895    1.4862847    1.8208016    4.5908879 
 2840000    1.0261047 3.1408642e-05   0.34331761 0.00084553122            0   0.34247208    1.5006781    1.8439957    5.0602406 
 2845000    0.9916787 5.7048733e-06   0.41504788 0.00080538299            0    0.4142425    1.4503301     1.865378     2.449557 
 2850000   0.97254342 4.5495132e-05   0.45409541 0.0042264748            0   0.44986893    1.4223448    1.8764402    6.5351417 
 2855000    1.1169966 -3.5437943e-05   0.19955111 0.0090892115            0    0.1904619    1.6336075    1.8331586   -1.7956868 
 2860000    0.9529112 -0.00010803768   0.42525869 0.0099558442            0   0.41530285    1.3936326    1.8188913   -9.2441671 
 2865000    1.0183933 -1.4160601e-05   0.31614665  0.015889683            0   0.30025696    1.4894002    1.8055468   0.35550126 
 2870000   0.95630454 5.9151645e-05    0.4492577  0.021422459            0   0.42783524    1.3985954    1.8478531    7.9049815 
 2875000    1.0057081 5.7988586e-05   0.37890183  0.013900862            0   0.36500097    1.4708481      1.84975    7.7877812 
 2880000    1.0935581 2.9511054e-05   0.23752769  0.003836919            0   0.23369077    1.5993287    1.8368564    4.8587883 
 2885000    0.9604163 -2.0131535e-05   0.45009693 0.00054398101            0   0.44955295    1.4046088    1.8547058  -0.20676338 
 2890000    1.0523075 -1.185865e-05   0.29515231 0.0065792922            0   0.28857301    1.5389998    1.8341521   0.61982631 
 2895000   0.97612376 5.2659836e-05   0.42820064   0.05338584            0    0.3748148     1.427581    1.8557816    7.2481489 
 2900000    1.0840547 4.098013e-05   0.31226851  0.031960055            0   0.28030845    1.5854299    1.8976985    6.0940637 
 2905000    1.0968234 -1.7497052e-05   0.37805925 0.0080449047            0   0.37001435    1.6041042    1.9821635   0.19046528 
 2910000    1.0170577 -3.3448337e-06   0.48640477   0.01071367            0    0.4756911    1.4874468    1.9738516    1.6313406 
 2915000    1.0856297 4.1822458e-05   0.33986024  0.017227675            0   0.32263256    1.5877334    1.9275937    6.2102134 
 2920000    1.0636812 6.4189097e-05   0.39087914  0.014052104            0   0.37682704    1.5556337    1.9465129    8.5194764 
 2925000    1.1386576 2.2882596e-05   0.33257551  0.010266372            0   0.32230914    1.6652867    1.9978622    4.3410401 
 2930000    1.0760875 -9.269479e-06   0.46808495   0.01313075            0    0.4549542     1.573778    2.0418629    1.0926683 
 2935000    1.1027757 1.1352138e-05   0.41181431  0.048993846            0   0.36282047    1.6128094    2.0246237    3.1870826 
 2940000    1.0436387 3.6460079e-05    0.4621346  0.039434954            0   0.42269965    1.5263216    1.9884562    5.7219682 
 2945000    1.0432682 4.620942e-05    0.4807535  0.010905007            0    0.4698485    1.5257798    2.0065333    6.7383779 
 2950000     1.131129 7.892796e-06    0.3450981  0.039500762            0   0.30559734    1.6542762    1.9993743    2.8075966 
 2955000    1.0135498 -4.1141218e-05   0.49908878  0.030327973            0   0.46876081    1.4823166    1.9814054   -2.2314553 
 2960000    1.0501199 -5.9030976e-05   0.51875639 0.00013475488            0   0.51862163    1.5358003    2.0545567   -3.9902152 
 2965000     1.076235 -4.0841232e-05   0.48418419  0.010641165            0   0.47354302    1.5739936    2.0581778   -2.1239643 
 2970000    1.0511179 2.9340065e-05    0.4908911  0.044450211            0   0.44644089      1.53726    2.0281511    5.0325737 
 2975000    1.0485293 4.4513877e-05   0.48079916  0.023835173            0   0.45696398    1.5334741    2.0142733    6.5724943 
 2980000    1.1729343 -1.9609607e-05   0.33583223  0.017866179            0   0.31796605    1.7154164    2.0512486  0.043224903 
 2985000    1.0957283 -6.8773337e-05   0.44852333  0.015071387            0   0.43345194    1.6025026    2.0510259   -4.9913638 
 2990000    1.0555122 -5.0922361e-05   0.52002523 0.0016667989            0   0.51835843    1.5436865    2.0637118    -3.150738 
 2995000    1.0642672 -5.6462027e-05   0.44201311 0.00011699815            0   0.44189611    1.5564908    1.9985039   -3.7832076 
[...]
19285000   0.91510073 -1.4176665e-05   0.41590789  0.018088041            0   0.39781985    1.3383348    1.7542427    0.3025522 
19290000   0.90371795 -6.773395e-05   0.39209206  0.035099247            0   0.35699281    1.3216875    1.7137796   -5.2221769 
19295000     0.908708 5.2327465e-05   0.41122774  0.066899979            0   0.34432776    1.3289855    1.7402132    7.0985456 
19300000   0.97513932 5.473132e-05    0.3099825  0.017484577            0   0.29249793    1.4261413    1.7361238    7.3406109 
19305000   0.98473769 -8.233688e-06   0.27359721            0            0   0.27359721    1.4401789    1.7137761   0.87064642 
19310000   0.90232262 -2.6976251e-05   0.41419702            0            0   0.41419702    1.3196468    1.7338438   -1.0285243 
19315000   0.97095471 1.2688814e-05   0.29538501 0.00015444314            0   0.29523057    1.4200213    1.7154063    3.0147408 
19320000   0.86206911 -7.0494102e-05   0.49847097  0.024847481            0   0.47362349    1.2607761     1.759247    -5.459349 
19325000   0.89070957 -5.7374771e-05    0.4454891  0.098240411            0   0.34724869    1.3026627    1.7481518   -4.1270247 
19330000   0.87908131 4.9972942e-05   0.43151635  0.024323947            0    0.4071924    1.2856564    1.7171728     6.834402 
19335000   0.94280397 -3.3447477e-05   0.31236753 0.0012911457            0   0.31107639    1.3788508    1.6912183   -1.7338033 
19340000    0.9312004 -6.7462493e-05   0.30497639 0.0013201086            0   0.30365628    1.3618806     1.666857   -5.2413023 
19345000   0.89396683 -9.4576243e-05   0.33884066 0.0034957526            0    0.3353449    1.3074265    1.6462671   -8.0383401 
19350000    0.8922811 -7.0314422e-06   0.31475185 0.0097915426            0   0.30496031    1.3049611     1.619713   0.89969328 
19355000   0.95676716 1.2796323e-05   0.22982607 0.0061980723            0     0.223628     1.399272    1.6290981    2.9394415 
19360000   0.85363242 -3.7972939e-05   0.38340939 0.00021979892            0   0.38318959    1.2484374    1.6318468   -2.2565821 
19365000    0.8909507 -4.1437506e-05    0.3382412            0            0    0.3382412    1.3030154    1.6412566    -2.601944 
19370000   0.92753884 -4.2758658e-05   0.31423675 0.0002280305            0   0.31400872    1.3565256    1.6707623   -2.7077243 
19375000   0.86631638 -7.6860822e-06   0.40969976  0.033100833            0   0.37659892    1.2669877    1.6766875   0.88963265 
19380000   0.90774585 5.4425694e-05   0.39876121  0.038449133            0   0.36031208    1.3275783    1.7263395    7.2995306 
19385000    1.0295888 4.7362118e-05   0.22458265  0.018274201            0   0.20630845    1.5057737    1.7303563    6.5802372 
19390000   0.87333465 2.3206684e-05   0.44730467  0.088118019            0   0.35918665    1.2772519    1.7245566    4.1009211 
19395000   0.91154771 2.7379109e-05   0.39428022  0.050010751            0   0.34426946    1.3331385    1.7274187    4.5310395 
19400000   0.96479792 4.3571593e-05   0.33549255 0.0042592491            0    0.3312333     1.411017    1.7465095    6.2082406 
19405000    1.0010258 1.7351231e-05    0.2669228  0.029787509            0   0.23713529    1.4640002     1.730923    3.5076891 
19410000   0.93546835 -1.6770269e-05   0.40242313   0.10540736            0   0.29701578    1.3681225    1.7705456  0.053270082 
19415000   0.86251653 -7.2021908e-05   0.49562782  0.047449457            0   0.44817836    1.2614304    1.7570582   -5.6179852 
19420000   0.92702765 -1.69974e-05    0.4107666  0.028921137            0   0.38184546    1.3557779    1.7665445   0.02601081 
19425000   0.96101591 5.4546255e-05   0.38241902  0.025202097            0   0.35721693    1.4054858    1.7879048    7.3734413 
19430000   0.93972198 1.8701036e-05    0.3985368  0.037143153            0   0.36139365    1.3743434    1.7728802    3.6878663 
19435000   0.97932111 -3.07985e-05   0.32077989 0.0027484402            0   0.31803145    1.4322571     1.753037   -1.4007294 
19440000   0.92382967 -4.3867013e-05   0.40998522  0.033145728            0    0.3768395    1.3511009    1.7610861   -2.7308961 
19445000   0.98311821 4.6188054e-05   0.31352055  0.025068614            0   0.28845193    1.4378104    1.7513309    6.4809877 
19450000   0.92457517 7.6394543e-05   0.40230639 0.0006953939            0     0.401611    1.3521912    1.7544976    9.5772988 
19455000   0.90237895 3.9112373e-05   0.39466318  0.001173124            0   0.39349006    1.3197292    1.7143924    5.7194994 
19460000   0.90618525 3.4128283e-06   0.35675018  0.022513206            0   0.33423698    1.3252959    1.6820461    2.0315197 
19465000   0.87462799 1.5509075e-05   0.42175364  0.054540139            0    0.3672135    1.2791434    1.7008971    3.2890263 
19470000   0.84951131 6.0521537e-05   0.40143659  0.044714276            0   0.35672232    1.2424103    1.6438469    7.8412523 
19475000   0.89682902 4.9726668e-05   0.31293311  0.012165382            0   0.30076773    1.3116124    1.6245455    6.7165564 
19480000   0.81268201 -4.4448132e-05   0.43078363  0.049635835            0   0.38114779    1.1885474    1.6193311   -2.9321576 
19485000   0.86019166 -2.0819645e-05   0.34357728  0.023977484            0   0.31959979    1.2580303    1.6016076  -0.53032406 
19490000   0.85249907 1.8505416e-05   0.35160515 0.0087396014            0   0.34286555    1.2467799     1.598385    3.4933396 
19495000   0.93041151 -6.0309016e-05   0.28332654  0.010799372            0   0.27252716    1.3607268    1.6440534   -4.5315899 
19500000   0.93176794 -7.384992e-05   0.24888983 0.0065978747            0   0.24229195    1.3627106    1.6116004   -5.9506314 
19505000   0.90234954 2.5932682e-05   0.26673336  0.014142431            0   0.25259093    1.3196862    1.5864196    4.2419262 
19510000   0.83232955 3.9055326e-05   0.35717749  0.028183802            0   0.32899368     1.217282    1.5744595    5.5737248 
19515000   0.91909097 -1.4459648e-05   0.29399912 0.0070785124            0    0.2869206    1.3441705    1.6381697   0.15750167 
19520000   0.90403755 -3.8947208e-05   0.31425964  0.043081656            0   0.27117798    1.3221549    1.6364145   -2.3517796 
19525000   0.87754968 -4.6298371e-05   0.33428584  0.017612172            0   0.31667367    1.2834164    1.6177022    -3.123251 
19530000   0.89258956 1.5526235e-05   0.34814217 0.0053900836            0   0.34275208    1.3054122    1.6535544    3.2434408 
19535000   0.98285013 2.0867261e-07   0.23240135 0.0050083378            0   0.22739301    1.4374183    1.6698197    1.6911877 
19540000   0.88651554 -3.1062016e-05   0.37083445  0.025794305            0   0.34504015     1.296529    1.6673634    -1.513387 
19545000   0.86836668 1.2825203e-05   0.38847423  0.026383305            0   0.36209092    1.2699863    1.6584605    2.9717612 
19550000   0.86433156 4.0654348e-05   0.38026089  0.012143153            0   0.36811773    1.2640849    1.6443458     5.807351 
19555000    0.8978013 2.2971741e-05   0.34965797   0.05646176            0   0.29319621    1.3130344    1.6626924    4.0149986 
19560000   0.90500261 1.9552466e-05   0.30375623  0.010445371            0   0.29331085    1.3235663    1.6273225    3.6294951 
19565000   0.84627896 2.893491e-05   0.38453524            0            0   0.38453524     1.237683    1.6222182     4.585153 
19570000   0.85401756 -2.6137196e-06   0.36416299            0            0   0.36416299    1.2490007    1.6131637    1.3455188 
19575000   0.89406318 -4.156172e-05   0.33101627            0            0   0.33101627    1.3075674    1.6385837   -2.6173365 
19580000   0.85739785 -2.969134e-05   0.37617123 0.0010533288            0   0.37511791    1.2539444    1.6301156   -1.4102776 
19585000   0.84509732 -1.1293046e-05   0.42992335  0.071195066            0   0.35872828    1.2359548    1.6658782   0.50947031 
19590000   0.91480884 -3.892943e-05   0.36404431  0.052157584            0   0.31188673    1.3379079    1.7019522   -2.2844214 
19595000   0.88635318 -3.4537111e-05   0.35243215   0.01087618            0   0.34155597    1.2962915    1.6487237   -1.8878764 
19600000   0.85036099 3.1215111e-05   0.36616557 0.0033184361            0   0.36284714     1.243653    1.6098185    4.8062459 
19605000   0.90052495 6.8440856e-05   0.24762974 0.0032387514            0   0.24439099    1.3170177    1.5646475    8.5729911 
19610000   0.87973292 2.5910898e-06   0.29906574 0.0043874039            0   0.29467834    1.2866094    1.5856751    1.8510027 
19615000   0.80584924 -5.1182236e-05   0.38118708   0.02796439            0   0.35322269    1.1785545    1.5597416   -3.6813194 
19620000    0.8010232 -5.9869436e-05   0.36422892  0.038960284            0   0.32526864    1.1714964    1.5357254   -4.5949049 
19625000   0.86694716 -4.0495025e-05   0.26961683  0.016506338            0   0.25311049    1.2679102    1.5375271   -2.6091635 
19630000   0.88538287 -3.2326875e-05   0.22322661 0.0034718758            0   0.21975473    1.2948724     1.518099    -1.792173 
19635000   0.81094496 -3.8274659e-05   0.33362785            0            0   0.33362785     1.186007    1.5196349   -2.3996902 
19640000   0.85176382 -2.4448637e-05   0.31031487 0.00074458208            0   0.30957029    1.2457046    1.5560195    -0.947521 
19645000    0.9017602 3.7249975e-05   0.19816265 0.0049015736            0   0.19326108    1.3188243    1.5169869    5.3313844 
19650000   0.79369763 3.1507297e-05    0.3234303   0.01487228            0   0.30855802    1.1607828    1.4842131    4.7105603 
19655000    0.7880689 7.1475628e-06   0.30652607   0.03183975            0   0.27468632    1.1525508    1.4590768    2.1909873 
19660000   0.81467374 3.1887643e-05   0.27371978  0.035732769            0   0.23798701    1.1914603    1.4651801    4.7304747 
19665000   0.79914292 -2.363598e-05   0.29902926  0.010613951            0   0.28841531    1.1687465    1.4677758  -0.95254853 
19670000    0.8143466 -3.7228497e-05   0.28181048  0.036918595            0   0.24489188    1.1909819    1.4727924   -2.3394057 
19675000   0.75336642 2.3025538e-05   0.39595512  0.040036973            0   0.35591814    1.1017984    1.4977535    3.8555686 
19680000   0.81621357 6.4040427e-05   0.35486227  0.064323834            0   0.29053844    1.1937123    1.5485746    8.1063144 
19685000   0.82964672 5.0899546e-05   0.35733003  0.053377002            0   0.30395303    1.2133583    1.5706884    6.7828018 
19690000   0.89885268 -2.7517894e-06   0.24314393   0.01904975            0   0.22409418     1.314572     1.557716    1.2759327 
19695000   0.82726769 -6.6591282e-05   0.37269141  0.046304337            0   0.32638707     1.209879    1.5825704   -5.2363768 
19700000   0.87717467 -1.3421309e-05   0.31423129  0.055492977            0   0.25873831     1.282868    1.5970992   0.22275716 
19705000   0.88861769 7.1473005e-05   0.25828508 0.0076712559            0   0.25061382    1.2996034    1.5578885    8.8767242 
19710000   0.84517242 7.7876832e-05   0.27706505 0.0080358331            0   0.26902921    1.2360647    1.5131297    9.4877174 
19715000   0.88548115 1.3380377e-05   0.21888035  0.012364267            0   0.20651609    1.2950162    1.5138965    2.8840471 
19720000   0.83399635 -4.7927834e-05   0.30906196 0.0054513399            0   0.30361062    1.2197197    1.5287816   -3.3790286 
19725000   0.82691428 -5.2311117e-07   0.30263514  0.001905538            0    0.3007296    1.2093621    1.5119973    1.4584307 
19730000   0.78765846 9.9847199e-06   0.35112275 0.0033080529            0    0.3478147    1.1519505    1.5030733    2.5255086 
19735000   0.80035002 -7.0820615e-05   0.32928278 0.0060469663            0   0.32323582    1.1705119    1.4997947   -5.7522363 
19740000   0.89367611 -3.3397037e-05   0.18241528 0.0065170595            0   0.17589823    1.3070013    1.4894166   -1.9304399 
19745000    0.9006801 2.4677834e-05   0.18852983 0.0056473065            0   0.18288252    1.3172446    1.5057745    4.0327847 
19750000   0.89420962 1.7462111e-06   0.23593558 0.0095112065            0   0.22642437    1.3077816    1.5437171    1.7225292 
19755000   0.90139979 -2.3718851e-05   0.20764757  0.017250071            0    0.1903975    1.3182972    1.5259448  -0.90286553 
19760000   0.86368909 -1.1399524e-05   0.26612044  0.019776384            0   0.24634406    1.2631453    1.5292657    0.3619545 
19765000   0.92524234 4.6009732e-05   0.21602618 0.0063566492            0   0.20966953    1.3531669    1.5691931    6.2805896 
19770000   0.85937003 4.3941253e-05   0.33944674 0.0052236299            0   0.33422311    1.2568287    1.5962754    6.0958597 
19775000   0.90248017 2.4953486e-05   0.29868011  0.016680609            0    0.2819995    1.3198772    1.6185574    4.1737943 
19780000     0.937487 1.2980639e-05   0.25393526  0.013265035            0   0.24067022    1.3710747      1.62501    2.9542275 
19785000   0.97592983 -7.3256976e-07   0.23146987 0.00089162854            0   0.23057824    1.4272974    1.6587672    1.5837521 
19790000   0.95948961 -2.1619969e-05   0.27580979 0.00028308832            0    0.2755267    1.4032536    1.6790633  -0.53482147 
19795000   0.93672011 -4.4789367e-05   0.29793361 0.0012956744            0   0.29663794    1.3699532    1.6678868   -2.9185445 
19800000   0.94876157 -3.6877647e-05   0.27847808  0.026872878            0   0.25160521    1.3875638    1.6660419   -2.1102292 
19805000   0.94529386 -2.2884614e-05   0.30911626  0.029092499            0   0.28002376    1.3824923    1.6916085   -0.6517759 
19810000   0.97970944 -3.4190325e-05   0.26780014  0.014836051            0   0.25296408    1.4328251    1.7006252   -1.8004641 
19815000   0.96824688 4.4200817e-06   0.32716546  0.020414797            0   0.30675066    1.4160611    1.7432265    2.1958429 
19820000   0.96029713 4.7929324e-05   0.31121477  0.079355129            0   0.23185964    1.4044346    1.7156493    6.6236121 
19825000   0.96892183 2.4221337e-05   0.29806838  0.043183953            0   0.25488442    1.4170482    1.7151166    4.1953815 
19830000   0.96500186 -1.2300139e-05   0.29833898  0.010193733            0   0.28814525    1.4113152    1.7096542   0.45012001 
19835000   0.96319338 -3.7428998e-05   0.30020928  0.009933166            0   0.29027611    1.4086703    1.7088796   -2.1238498 
19840000    1.0480559 3.7623061e-06   0.17401292  0.012210481            0   0.16180244    1.5327817    1.7067946    2.0920548 
19845000    1.0088511 2.9063813e-05   0.20498429  0.011389796            0   0.19359449    1.4754447     1.680429    4.6565634 
19850000    1.0389308 -1.6713181e-05   0.19914765  0.013454456            0    0.1856932    1.5194363    1.7185839 0.0071541586 
19855000    1.0046578 -1.349986e-05   0.24421502   0.03961989            0   0.20459513    1.4693121    1.7135271   0.33114147 
19860000   0.93516593 2.732194e-05   0.32834901  0.038982582            0   0.28936643    1.3676802    1.6960292    4.4937958 
19865000   0.98276837 -1.09077e-05   0.28306321  0.025271541            0   0.25779167    1.4372987    1.7203619   0.60341347 
19870000    1.0026201 -1.0032184e-05   0.28992097  0.023484737            0   0.26643623    1.4663319    1.7562528   0.72895721 
19875000    1.0225288 2.062162e-05   0.27054787 0.0060054732            0   0.26454239    1.4954484    1.7659962    3.8776502 
19880000    1.0394395 3.4838046e-05   0.26211123  0.024927279            0   0.23718395    1.5201803    1.7822915    5.3497075 
19885000   0.99773602 3.4403745e-05   0.31512481  0.028223011            0    0.2869018    1.4591889    1.7743137    5.2972573 
19890000    1.0094317 1.1028539e-05   0.31800248  0.044992435            0   0.27301005    1.4762939    1.7942964    2.9236188 
19895000   0.93402475 -4.2992788e-05   0.38416763  0.025119941            0   0.35904769    1.3660112    1.7501788   -2.6522827 
19900000    1.0314396 -2.4630033e-05   0.25915413  0.007619211            0   0.25153492    1.5084804    1.7676345  -0.75448088 
19905000    1.0483636 2.8392335e-05   0.20609724            0            0   0.20609724    1.5332317     1.739329     4.646704 
19910000   0.98035305 5.1428154e-05   0.30519728 0.00099929105            0   0.30419799    1.4337663    1.7389636    7.0052066 
19915000    1.0274912 -7.620739e-06   0.23961722  0.015632551            0   0.22398467    1.5027058    1.7423231   0.96195939 
19920000    1.0484162 -3.0167868e-05   0.20320791 0.0091053676            0   0.19410254    1.5333088    1.7365167    -1.352673 
19925000    1.0189132 -2.4409644e-05   0.25668614 0.0012226878            0   0.25546345    1.4901605    1.7468467  -0.75270093 
19930000   0.92102529 -8.8931661e-06   0.39072888  0.073726778            0    0.3170021    1.3469995    1.7377284   0.82706815 
19935000    1.0508264 1.5565473e-06   0.20642723  0.023379988            0   0.18304724    1.5368337    1.7432609    1.9026514 
19940000    1.0192676 -4.3973657e-05   0.23445021 0.0039098015            0   0.23054041    1.4906789    1.7251291   -2.7777733 
19945000    1.0012809 1.1097064e-05   0.26379985  0.033896111            0   0.22990374    1.4643733    1.7281731    2.8645125 
19950000    0.9323005 2.5070535e-05   0.29039827  0.050086083            0   0.24031218    1.3634895    1.6538878    4.2211105 
19955000   0.99451396 1.4433461e-05   0.24031644  0.027706039            0    0.2126104    1.4544767    1.6947931    3.1727795 
19960000   0.92237096 8.8627514e-06   0.32018644  0.018064982            0   0.30212146    1.3489675     1.669154    2.5766997 
19965000   0.95504515 -4.7247514e-05    0.3195798 0.0075950548            0   0.31198475    1.3967535    1.7163333   -3.1218121 
19970000   0.99350367 -2.8178856e-05   0.29878713  0.010668251            0   0.28811888    1.4529991    1.7517862   -1.1337286 
19975000   0.95956197 -5.3560361e-06   0.32607697  0.005972089            0   0.32010488    1.4033594    1.7294364    1.1809783 
19980000   0.95743564 -2.2983984e-05   0.30454997 0.0006968577            0   0.30385312    1.4002496    1.7047996  -0.64876036 
19985000   0.93880723 -2.7042116e-05   0.34637018  0.010920765            0   0.33544942    1.3730056    1.7193758   -1.0497369 
19990000   0.90605655 -4.1749735e-05    0.3763007  0.018077831            0   0.35822286    1.3251077    1.7014084   -2.5737644 
19995000    0.9632718 -7.8519697e-05   0.30867561  0.028610156            0   0.28006546     1.408785    1.7174606   -6.3229564 
20000000    1.0319309 4.5683574e-06   0.23112677  0.011090294            0   0.22003648     1.509199    1.7403257    2.2081255 
Loop time of 129.088 on 1 procs for 20000000 steps with 40 atoms

Performance: 133862.191 tau/day, 154933.092 timesteps/s
99.4% CPU use with 1 MPI tasks x no OpenMP threads

MPI task timing breakdown:
Section |  min time  |  avg time  |  max time  |%varavg| %total
---------------------------------------------------------------
Pair    | 4.8931     | 4.8931     | 4.8931     |   0.0 |  3.79
Bond    | 13.131     | 13.131     | 13.131     |   0.0 | 10.17
Neigh   | 18.945     | 18.945     | 18.945     |   0.0 | 14.68
Comm    | 47.714     | 47.714     | 47.714     |   0.0 | 36.96
Output  | 0.32307    | 0.32307    | 0.32307    |   0.0 |  0.25
Modify  | 38.961     | 38.961     | 38.961     |   0.0 | 30.18
Other   |            | 5.121      |            |       |  3.97

Nlocal:        40.0000 ave          40 max          40 min
Histogram: 1 0 0 0 0 0 0 0 0 0
Nghost:        0.00000 ave           0 max           0 min
Histogram: 1 0 0 0 0 0 0 0 0 0
Neighs:        13.0000 ave          13 max          13 min
Histogram: 1 0 0 0 0 0 0 0 0 0

Total # of neighbors = 13
Ave neighs/atom = 0.325
Ave special neighs/atom = 5.7000000
Neighbor list builds = 3727
Dangerous builds = 0
write_restart restart.equil
System init for write_restart ...
WARNING: Communication cutoff 1.4200000000000002 is shorter than a bond length based estimate of 1.8. This may lead to errors. (../comm.cpp:667)
#--------------End of Input file ------------------
Total wall time: 0:02:09
