LAMMPS (29 Oct 2020)
###################### polyelectrolyte complexation ######################
clear

#Initialization
#------------------------------------
units				lj
dimension			3
atom_style			full
boundary			p p p

#Atom Definition
#-------------------------------------
read_data			data.complexation
Reading data file ...
  orthogonal box = (-80.000000 -80.000000 -80.000000) to (80.000000 80.000000 80.000000)
  1 by 1 by 1 MPI processor grid
  reading atoms ...
  40 atoms
  scanning bonds ...
  1 = max bonds/atom
  reading bonds ...
  39 bonds
Finding 1-2 1-3 1-4 neighbors ...
  special bond factors lj:    0.0      0.0      0.0     
  special bond factors coul:  0.0      0.0      0.0     
     2 = max # of 1-2 neighbors
     2 = max # of 1-3 neighbors
     4 = max # of 1-4 neighbors
     6 = max # of special neighbors
  special bonds CPU = 0.000 seconds
  read_data CPU = 0.002 seconds

#Force definition
#----------------------------------------------
#Bond definition
bond_style			harmonic
bond_coeff			1 5000 1
#Pair definition
special_bonds	lj 0 1 1
Finding 1-2 1-3 1-4 neighbors ...
  special bond factors lj:    0.0      1.0      1.0     
  special bond factors coul:  0.0      0.0      0.0     
     2 = max # of 1-2 neighbors
     2 = max # of 1-3 neighbors
     4 = max # of 1-4 neighbors
     6 = max # of special neighbors
  special bonds CPU = 0.000 seconds
pair_style		 lj/cut 1.12
pair_modify 		 shift yes
pair_coeff	1 1 1 1 1.12

#Timestep etc
#--------------------------------------------
timestep		1e-05
run_style		verlet
velocity		all	create	1	11

#Fix
#---------------------------------------
group polymers type 1
40 atoms in group polymers
fix 1 all nve
fix 2 all langevin 1	1	10	11
fix 3 polymers recenter INIT INIT INIT units box

#Dump
#------------------------------------------------
compute  1 all gyration
variable  myRg2 equal c_1
variable  i equal step
fix  mythermofile all print 5000 "$i ${myRg2}" file radius_of_gyration.dat screen no

thermo_style		 custom step temp press pe evdwl ecoul ebond ke etotal enthalpy
thermo 	5000
dump	3 all custom 5000 dump.lammpstrj id mol type xu yu zu
run		20000000
Neighbor list info ...
  update every 1 steps, delay 10 steps, check yes
  max neighbors/atom: 2000, page size: 100000
  master list distance cutoff = 1.42
  ghost atom cutoff = 1.42
  binsize = 0.71, bins = 226 226 226
  1 neighbor lists, perpetual/occasional/extra = 1 0 0
  (1) pair lj/cut, perpetual
      attributes: half, newton on
      pair build: half/bin/newton
      stencil: half/bin/3d/newton
      bin: standard
WARNING: Communication cutoff 1.4200000000000002 is shorter than a bond length based estimate of 1.8. This may lead to errors. (../comm.cpp:667)
Per MPI rank memory allocation (min/avg/max) = 54.71 | 54.71 | 54.71 Mbytes
Step Temp Press PotEng E_vdwl E_coul E_bond KinEng TotEng Enthalpy 
       0            1 9.5214844e-06            0            0            0            0       1.4625       1.4625       2.4375 
    5000   0.85500325 -0.00011689991   0.21636903            0            0   0.21636903    1.2504423    1.4668113   -10.503739 
   10000   0.53921722  -0.00028173   0.68337747            0            0   0.68337747   0.78860518    1.4719826   -27.377169 
   15000   0.75195611 -0.00015432049   0.38359062            0            0   0.38359062    1.0997358    1.4833264   -14.319092 
   20000   0.79369903 1.6759198e-05   0.28187087            0            0   0.28187087    1.1607848    1.4426557    3.1587976 
   25000   0.80961816 -8.3912979e-05   0.23680311            0            0   0.23680311    1.1840666    1.4208697   -7.1718194 
   30000   0.74928241 -0.00015174581   0.35636951            0            0   0.35636951    1.0958255     1.452195   -14.086575 
   35000   0.84762101 2.7761442e-05   0.21649821            0            0   0.21649821    1.2396457    1.4561439    4.2989156 
   40000    0.7528509 0.00012902757   0.33851749            0            0   0.33851749    1.1010444    1.4395619    14.651985 
   45000   0.79574732 -4.4247134e-05   0.29800344            0            0   0.29800344    1.1637805    1.4617839   -3.0691226 
   50000   0.75752215 -0.00012096758   0.33078911            0            0   0.33078911    1.1078761    1.4386653   -10.948415 
   55000   0.88785543 6.3064736e-05   0.18166861            0            0   0.18166861    1.2984886    1.4801572    7.9379861 
   60000   0.71921467 8.3273501e-05   0.40999955            0            0   0.40999955    1.0518515     1.461851    9.9890575 
   65000   0.81035547 -2.4715227e-05   0.25632685            0            0   0.25632685    1.1851449    1.4414717   -1.0893675 
   70000   0.73885641 -9.4647373e-05   0.35644515            0            0   0.35644515    1.0805775    1.4370226   -8.2548684 
   75000   0.71964756 7.4304177e-05   0.38037274            0            0   0.38037274    1.0524846    1.4328573     9.041605 
   80000   0.80623777 6.5419418e-05   0.29131173            0            0   0.29131173    1.1791227    1.4704345    8.1693829 
   85000   0.68602118 -0.00016758557   0.49273142            0            0   0.49273142     1.003306    1.4960374   -15.664725 
   90000   0.90938086 8.1154169e-05   0.15826216            0            0   0.15826216    1.3299695    1.4882317    9.7984185 
   95000   0.79925211 9.7185993e-05   0.31531825            0            0   0.31531825    1.1689062    1.4842245     11.43607 
  100000   0.81047154 -4.9795519e-05   0.30188959            0            0   0.30188959    1.1853146    1.4872042   -3.6118569 
  105000   0.88344942 -2.0117054e-05   0.20015544            0            0   0.20015544    1.2920448    1.4922002  -0.56778611 
  110000   0.83277581 6.9064183e-05   0.30811491            0            0   0.30811491    1.2179346    1.5260495    8.5982218 
  115000   0.86403333 5.0351268e-05   0.24595761            0            0   0.24595761    1.2636487    1.5096064    6.6655762 
  120000   0.78383982 -0.00015252409   0.36688276            0            0   0.36688276    1.1463657    1.5132485   -14.105219 
  125000   0.78603064 0.00012555277   0.40480818            0            0   0.40480818    1.1495698     1.554378    14.410982 
  130000   0.88598389 8.3337644e-06   0.28189124            0            0   0.28189124    1.2957514    1.5776427    2.4310202 
  135000   0.79131177 -0.00010463272    0.3856066            0            0    0.3856066    1.1572935    1.5429001   -9.1714906 
  140000   0.88784105 3.6844521e-05   0.26133521            0            0   0.26133521    1.2984675    1.5598027    5.3326817 
  145000   0.85910916 4.9876866e-05   0.25544999            0            0   0.25544999    1.2564471    1.5118971    6.6192882 
  150000   0.70132258 -9.426725e-05   0.51576382            0            0   0.51576382    1.0256843    1.5414481   -8.1115183 
  155000   0.78370055 2.4680673e-05   0.38622322 0.0019656708            0   0.38425755    1.1461621    1.5323853    4.0596862 
  160000   0.80655803 0.00011016295   0.36804281 0.0015211338            0   0.36652168    1.1795911    1.5476339     12.82832 
  165000   0.76436033 -0.00010165128   0.46359373 0.0033676924            0   0.46022603     1.117877    1.5814707   -8.8276206 
  170000   0.88330281 5.6072966e-05    0.3100813 0.00086488791            0   0.30921641    1.2918304    1.6019117    7.3437833 
  175000   0.85036898 7.0570814e-05   0.36938111            0            0   0.36938111    1.2436646    1.6130457    8.8394971 
  180000     0.933978 -6.8004845e-05   0.25942193            0            0   0.25942193    1.3659428    1.6253648   -5.3383314 
  185000   0.89442406 -3.8612514e-05   0.31712906            0            0   0.31712906    1.3080952    1.6252243   -2.3286972 
  190000   0.89555895 7.4957014e-05   0.30098514            0            0   0.30098514     1.309755    1.6107401    9.2863383 
  195000   0.85514659 -1.6963653e-05   0.35533166            0            0   0.35533166    1.2506519    1.6059836  -0.13109448 
  200000   0.90327138 -1.9113659e-05   0.31140948            0            0   0.31140948    1.3210344    1.6324439  -0.32479485 
  205000   0.78272004 9.6686221e-05   0.45386061            0            0   0.45386061    1.1447281    1.5985887    11.499258 
  210000   0.86103873 -2.5336085e-06   0.35828123            0            0   0.35828123    1.2592691    1.6175504    1.3581089 
  215000   0.94061542 -2.3628412e-05   0.29304482            0            0   0.29304482    1.3756501    1.6686949  -0.75085446 
  220000   0.85070271 8.0525298e-05   0.41300543            0            0   0.41300543    1.2441527    1.6571581    9.9029487 
  225000   0.85241318 -6.8994723e-05   0.41191972            0            0   0.41191972    1.2466543     1.658574   -5.4064857 
  230000   0.95016968 4.7379415e-05   0.31562904            0            0   0.31562904    1.3896232    1.7052522    6.5569043 
  235000   0.89051037 5.6956611e-05   0.39117292 0.00048412508            0   0.39068879    1.3023714    1.6935443    7.5259013 
  240000    0.8604543 -4.7916263e-05   0.45299275 0.0077026334            0   0.44529012    1.2584144    1.7114072   -3.1952182 
  245000   0.87250527 -4.1647286e-05    0.4106148  0.016819753            0   0.39379505     1.276039    1.6866538   -2.5780284 
  250000   0.85311624 4.4807206e-05   0.44776655  0.011376198            0   0.43639035    1.2476825     1.695449    6.2837069 
  255000   0.80613722 -8.3948547e-05   0.53849098 0.0028400766            0    0.5356509    1.1789757    1.7174667   -6.8788645 
  260000   0.85587537 9.9912914e-05     0.467912            0            0     0.467912    1.2517177    1.7196297    11.950712 
  265000   0.85700876 -0.00011986899   0.44688708  0.001741864            0   0.44514522    1.2533753    1.7002624   -10.574323 
  270000   0.82747523 0.00011374743   0.48887918 0.0025496753            0   0.48632951    1.2101825    1.6990617    13.346798 
  275000   0.84525371 -5.0148648e-05   0.48222107  0.002140159            0   0.48008091    1.2361836    1.7184046   -3.4168169 
  280000   0.93313571 6.3552347e-05   0.37007441 0.00023401009            0    0.3698404     1.364711    1.7347854    8.2425457 
  285000   0.95183558 3.1268408e-05    0.3569335 0.0021869748            0   0.35474652    1.3920595     1.748993     4.950878 
  290000   0.87534139 -6.7089619e-05   0.47224192 0.0042496993            0   0.46799222    1.2801868    1.7524287   -5.1175483 
  295000   0.96235653 0.00010202676   0.37690399 0.0022305587            0   0.37467343    1.4074464    1.7843504    12.231891 
  300000   0.91510508 -0.00011359293   0.42867078 0.00022351546            0   0.42844726    1.3383412     1.767012   -9.8649037 
  305000   0.89839461 7.1128067e-05    0.4294911  0.010391248            0   0.41909985    1.3139021    1.7433932    9.0269073 
  310000    0.8097976 3.3893964e-05   0.55379394  0.024310157            0   0.52948378     1.184329    1.7381229    5.2088648 
  315000   0.89549226 -4.5893563e-05   0.42169702 0.0073022742            0   0.41439475    1.3096574    1.7313545   -2.9681464 
  320000   0.91568931 3.3572879e-05   0.40338493  0.043001691            0   0.36038324    1.3391956    1.7425805    5.1804433 
  325000   0.91310456 5.4222733e-06   0.38481579  0.028020319            0   0.35679547    1.3354154    1.7202312     2.275472 
  330000   0.95387388 6.3925214e-06   0.32276319 5.5295045e-05            0   0.32270789    1.3950406    1.7178037    2.3723979 
  335000   0.88325538 4.5826381e-05   0.47672022            0            0   0.47672022     1.291761    1.7684812    6.4611026 
  340000   0.85194087 -9.8407338e-05   0.50886318            0            0   0.50886318    1.2459635    1.7548267   -8.3220847 
  345000   0.99216183 8.4721136e-05   0.34719787            0            0   0.34719787    1.4510367    1.7982345    10.473679 
  350000    1.0735728 -5.0978305e-05   0.28584136 0.0026624804            0   0.28317888    1.5701002    1.8559415   -3.3642369 
  355000   0.91090464 -2.8585211e-05   0.51181206 0.0069347324            0   0.50487733     1.332198    1.8440101   -1.0831155 
  360000   0.93843585 5.9709434e-05    0.4592308 0.0099887754            0   0.44924203    1.3724624    1.8316932    7.9459393 
  365000    0.9426636 -9.2521661e-05    0.4463826 0.0010583691            0   0.44532423    1.3786455    1.8250281   -7.6491899 
  370000   0.95542711 4.0654507e-05   0.44329892            0            0   0.44329892    1.3973122    1.8406111    6.0036326 
  375000   0.96844395 -2.8386087e-05   0.46530932            0            0   0.46530932    1.4163493    1.8816586   -1.0250767 
  380000    0.9319565 -0.00011235564   0.53256076            0            0   0.53256076    1.3629864    1.8955471   -9.6096705 
  385000   0.97748138 0.00013065284   0.43084024            0            0   0.43084024    1.4295665    1.8604068    15.239257 
  390000    1.0598385 -9.3694633e-05   0.32871518 6.6713263e-05            0   0.32864847    1.5500138     1.878729   -7.7156014 
  395000    0.9917251 -4.5626113e-06   0.36656132            0            0   0.36656132     1.450398    1.8169593    1.3497479 
  400000   0.94018402 0.00010459126   0.43777184            0            0   0.43777184    1.3750191     1.812791    12.522936 
  405000   0.86219859 -0.00013130076   0.53791735            0            0   0.53791735    1.2609654    1.7988828   -11.646315 
  410000   0.85977693 0.00012755198   0.51194542            0            0   0.51194542    1.2574238    1.7693692    14.830692 
  415000    1.0018747 -7.4958783e-05   0.29398772            0            0   0.29398772    1.4652418    1.7592295   -5.9165499 
  420000    1.0151697 -2.8264877e-05   0.29842702            0            0   0.29842702    1.4846856    1.7831126   -1.1112107 
  425000    0.9059386 8.995519e-05   0.46628549 0.0028664279            0   0.46341906    1.3249352    1.7912207    11.002632 
  430000   0.92038942 -0.00011399958   0.44554467  0.035584885            0   0.40995978    1.3460695    1.7916142    -9.881943 
  435000   0.83394763 9.647709e-05   0.59417935  0.032054211            0   0.56212514    1.2196484    1.8138278    11.693082 
  440000   0.83998353 -8.3356397e-05   0.56201289 0.0042715085            0   0.55774138    1.2284759    1.7904888   -6.7452062 
  445000   0.90528527 1.6592258e-05   0.46295459 0.0093119446            0   0.45364264    1.3239797    1.7869343    3.4859816 
  450000    1.0025764 -3.784646e-05   0.32849584 0.0065956432            0    0.3219002    1.4662679    1.7947638   -2.0807137 
  455000   0.91836409 8.5731378e-06   0.43188459  0.022595231            0   0.40928935    1.3431075    1.7749921    2.6528814 
  460000    0.7794982 -1.7132187e-05   0.63689676  0.026488555            0    0.6104082    1.1400161    1.7769129   0.02257694 
  465000   0.83484882 -9.6481252e-05    0.5502585  0.021520012            0   0.52873849    1.2209664    1.7712249   -8.1084553 
  470000   0.95342429 4.8262875e-05   0.36453218  0.012052182            0      0.35248     1.394383    1.7589152    6.7010336 
  475000   0.91587173 -4.4077618e-06   0.37723736  0.051233237            0   0.32600412    1.3394624    1.7166998     1.265345 
  480000   0.86857761 -2.2090323e-05   0.45113255  0.036255908            0   0.41487665    1.2702948    1.7214273  -0.54062178 
  485000    0.7955827 0.00014430359   0.52394126 0.0072933629            0   0.51664789    1.1635397    1.6874809    16.464168 
  490000   0.84304847 -8.4600286e-05   0.42769443 0.0016749547            0   0.42601947    1.2329584    1.6606528   -7.0024164 
  495000   0.76669943 -1.7557694e-05    0.5110167 0.00088934265            0   0.51012736    1.1212979    1.6323146  -0.16559321 
  500000   0.82932022 -7.0108764e-05   0.46664247 0.0082122327            0   0.45843024    1.2128808    1.6795233   -5.4996142 
  505000   0.80969283 0.00010191691   0.48840572  0.025130283            0   0.46327544    1.1841758    1.6725815    12.108873 
  510000     0.732208 -4.1455337e-05   0.57695264  0.019886031            0   0.55706661    1.0708542    1.6478068   -2.5972196 
  515000    0.8474995 7.3984309e-05   0.44344164  0.016123399            0   0.42731825     1.239468    1.6829097     9.258903 
  520000   0.82089564 6.3145004e-05   0.46145043  0.024308906            0   0.43714152    1.2005599    1.6620103    8.1280588 
  525000   0.90999266 -4.5866852e-05   0.36068024  0.042326506            0   0.31835373    1.3308643    1.6915445   -3.0052211 
  530000    0.8862916 4.1769635e-05    0.4219974 0.0045606122            0   0.41743679    1.2962015    1.7181989    5.9954094 
  535000   0.89701855 -1.8253843e-05   0.43459863  0.006461004            0   0.42813763    1.3118896    1.7464883  -0.12270529 
  540000   0.79558337 5.4095352e-06   0.56146767  0.012750926            0   0.54871674    1.1635407    1.7250083    2.2789448 
  545000   0.90777417 3.2179575e-06   0.40180655 0.0055283649            0   0.39627819    1.3276197    1.7294263    2.0589451 
  550000   0.94081571 6.805749e-05   0.35317998 0.0035434315            0   0.34963655     1.375943     1.729123      8.69821 
  555000   0.71808745 -6.023374e-05   0.66129591  0.040567973            0   0.62072793    1.0502029    1.7114988   -4.4564362 
  560000   0.74644866 8.4289245e-05    0.6383049  0.064093034            0   0.57421187    1.0916812    1.7299861    10.361205 
  565000   0.76403674 -3.441855e-05   0.60441058 0.0060153238            0   0.59839526    1.1174037    1.7218143   -1.8026452 
  570000   0.91173816 0.00010191663   0.41336969  0.016916988            0    0.3964527    1.3334171    1.7467867     12.18305 
  575000   0.88455223 4.344695e-06   0.46231663  0.024471647            0   0.43784498    1.2936576    1.7559743     2.200871 
  580000   0.85465739 4.3514285e-06   0.54665255  0.030429893            0   0.51622265    1.2499364     1.796589    2.2421753 
  585000    1.0168843 -3.5443338e-06   0.33286164  0.050078117            0   0.28278352    1.4871933    1.8200549    1.4571151 
  590000    0.9278165 2.8392345e-05     0.435543  0.014267686            0   0.42127531    1.3569316    1.7924746    4.6998507 
  595000   0.85446655 -6.774431e-05   0.52547315  0.027197221            0   0.49827593    1.2496573    1.7751305   -5.1618869 
  600000   0.83520037 -4.4196385e-05   0.55654416 0.0050170483            0   0.55152711    1.2214805    1.7780247   -2.7476851 
  605000   0.81418032 -5.3495774e-05   0.58127143            0            0   0.58127143    1.1907387    1.7720101   -3.7059571 
  610000   0.91648331 -4.3176053e-05    0.4845826            0            0    0.4845826    1.3403568    1.8249394   -2.5962884 
  615000   0.98225969 4.179207e-05   0.40762092            0            0   0.40762092    1.4365548    1.8441757    6.1236837 
  620000   0.98772557 -2.837003e-05    0.3706835   0.00021138            0   0.37047212    1.4445486    1.8152321    -1.089859 
  625000   0.95572141 1.6663612e-05   0.43027123 0.0054079001            0   0.42486333    1.3977426    1.8280138    3.5343676 
  630000   0.98410394 -3.2596675e-06   0.39078114 0.0090722533            0   0.38170889     1.439252    1.8300332    1.4962432 
  635000   0.94836921 3.2659669e-05   0.43924431 0.0041750673            0   0.43506925      1.38699    1.8262343    5.1705844 
  640000   0.85931099 -7.7868372e-05   0.49540297 0.0060017408            0   0.48940123    1.2567423    1.7521453    -6.221576 
  645000   0.84809233 1.4036455e-05   0.52011503 0.0077314323            0   0.51238359     1.240335    1.7604501     3.197783 
  650000   0.78972527 -1.7285968e-05   0.60112065  0.003207732            0   0.59791292    1.1549732    1.7560939  -0.01398922 
  655000   0.81781628 3.7848554e-05    0.5287503  0.000267993            0    0.5284823    1.1960563    1.7248066    5.6004985 
  660000     0.838356 -2.5397469e-05   0.49422715 0.00041898325            0   0.49380816    1.2260956    1.7203228  -0.88037806 
  665000    1.0043877 7.324152e-05    0.2764522 0.0076961081            0   0.26875609     1.468917    1.7453692    9.2453009 
  670000   0.83084974 -8.23508e-05   0.52043608  0.013562109            0   0.50687397    1.2151177    1.7355538   -6.6971681 
  675000   0.86259078 -7.4080525e-06   0.46485755 0.0079469109            0   0.45691064     1.261539    1.7263966   0.96781198 
  680000   0.89081197 -0.00012663721   0.38466814  0.008587258            0   0.37608089    1.3028125    1.6874807    -11.28017 
  685000   0.97611173 6.1919591e-05   0.31381614  0.024644189            0   0.28917195    1.4275634    1.7413795    8.0819457 
  690000   0.90588535 2.2862354e-05   0.45792999  0.037661802            0   0.42026818    1.3248573    1.7827873    4.1238923 
  695000   0.92639374 2.4843701e-05   0.45378424  0.021089949            0   0.43269429    1.3548508    1.8086351      4.35263 
  700000   0.96701928 -9.3819969e-05   0.41389065  0.022741327            0   0.39114932    1.4142657    1.8281563   -7.7790085 
  705000   0.94123789 5.0901186e-05   0.43887532  0.008253239            0   0.43062208    1.3765604    1.8154357    7.0277172 
  710000   0.83970703 -4.2848905e-05   0.59177398 0.00032678961            0   0.59144719    1.2280715    1.8198455   -2.5678823 
  715000   0.87000216 4.5418598e-05   0.50848149            0            0   0.50848149    1.2723782    1.7808597    6.4317241 
  720000   0.86410663 -8.5153822e-05   0.52560327            0            0   0.52560327    1.2637559    1.7893592   -6.9303921 
  725000    0.9481937 1.6471703e-05   0.36008348            0            0   0.36008348    1.3867333    1.7468168    3.4335192 
  730000   0.93864187 6.7850809e-05   0.37351321 5.3970394e-05            0   0.37345924    1.3727637    1.7462769    8.6941998 
  735000   0.88384263 2.585425e-05   0.49851133 0.0015656655            0   0.49694566    1.2926198    1.7911312    4.4386063 
  740000   0.86409479 2.876104e-05   0.52723909 0.0041732277            0   0.52306587    1.2637386    1.7909777    4.7361083 
  745000   0.91651358 -3.882203e-05   0.49604805 0.0038420617            0   0.49220599    1.3404011    1.8364492   -2.1389267 
  750000   0.99741544 -7.2985502e-06   0.36639216  0.021088174            0   0.34530399    1.4587201    1.8251122    1.0777407 
  755000   0.93910631 0.00013264021   0.48418647  0.049776223            0   0.43441025     1.373443    1.8576294    15.439987 
  760000   0.94257242 -2.3993521e-05   0.46720723  0.018986978            0   0.44822025    1.3785122    1.8457194  -0.61121715 
  765000    1.0070526 -2.6920025e-05    0.4275634 0.0015970258            0   0.42596638    1.4728144    1.9003778  -0.85623271 
  770000   0.94214775 8.3165367e-05   0.53034453 0.00090024152            0   0.52944429    1.3778911    1.9082356    10.424369 
  775000    0.9545419 -6.1392535e-05   0.55318446 0.0018875248            0   0.55129693    1.3960175     1.949202   -4.3373936 
  780000   0.98190344 4.4680403e-05   0.50055692  0.012660701            0   0.48789622    1.4360338    1.9365907     6.511864 
  785000   0.94430154 5.0479246e-05   0.54915825  0.038852914            0   0.51030534     1.381041    1.9301993     7.099274 
  790000   0.96635799 -2.0566052e-05   0.53407228  0.011635398            0   0.52243688    1.4132986    1.9473708  -0.15859287 
  795000   0.98319939 -6.8508681e-05    0.5195257 0.0046989081            0   0.51482679    1.4379291    1.9574548   -5.0578342 
  800000    0.9604952 1.5868774e-05   0.54206507 0.0011475008            0   0.54091757    1.4047242    1.9467893    3.5717518 
  805000   0.98429458 1.4886322e-05      0.49074 0.0043203619            0   0.48641963    1.4395308    1.9302708    3.4546301 
  810000   0.97693274 -5.2673679e-05   0.49046697  0.041478162            0   0.44898881    1.4287641    1.9192311   -3.4745536 
  815000   0.97971322 2.5551039e-05   0.49125765  0.020725934            0   0.47053172    1.4328306    1.9240882    4.5405146 
  820000   0.94389548 -2.4631242e-05   0.58116821 0.0067968454            0   0.57437136    1.3804471    1.9616154  -0.56062383 
  825000    1.0480937 6.6641681e-05   0.42113058 0.0043278253            0   0.41680276    1.5328371    1.9539676    8.7780758 
  830000    1.0960556 6.6672542e-05   0.33242672 0.0013988155            0    0.3310279    1.6029814    1.9354081    8.7626764 
  835000    1.0229171 -2.6331698e-05   0.45747478 0.00019424331            0   0.45728054    1.4960162     1.953491  -0.74287491 
  840000   0.94824399 3.1431971e-05   0.56542564  0.024060793            0   0.54136484    1.3868068    1.9522325    5.1708663 
  845000      1.01958 -4.7160613e-05   0.44690152  0.053007158            0   0.39389436    1.4911357    1.9380372   -2.8912095 
  850000   0.89118552 -0.0001163122   0.61709593 0.0028729833            0   0.61422295    1.3033588    1.9204548   -9.9899148 
  855000   0.97595085 -1.3815542e-05   0.51725733 5.5578327e-05            0   0.51720176    1.4273281    1.9445854   0.52987399 
  860000   0.98768189 -4.0681478e-05   0.51219364 0.00028223645            0    0.5119114    1.4444848    1.9566784   -2.2091049 
  865000   0.87331058 4.1734411e-07   0.66613733 0.0081179509            0   0.65801938    1.2772167    1.9433541    1.9860901 
  870000    1.0507316 -6.0914039e-05    0.4443905   0.05455554            0   0.38983496    1.5366949    1.9810854   -4.2565122 
  875000   0.89103871 8.8388148e-06   0.72580508  0.014719074            0     0.711086    1.3031441    2.0289492    2.9340438 
  880000   0.99497753 -9.0771797e-05   0.56020622  0.011726537            0   0.54847969    1.4551546    2.0153609   -7.2796711 
  885000   0.98339055 -2.6377515e-05   0.56217436 0.0095048391            0   0.55266953    1.4382087     2.000383  -0.70067445 
  890000   0.91542066 -8.0349575e-05   0.63917485  0.026410721            0   0.61276413    1.3388027    1.9779776   -6.2498189 
  895000    1.0034941 4.402339e-05   0.54341976  0.012568505            0   0.53085126    1.4676101    2.0110299    6.5190251 
  900000    1.0478248 -9.1240936e-05   0.51064383 0.0017766635            0   0.50886716    1.5324438    2.0430876   -7.2999842 
  905000    1.0722752 -4.5251521e-05    0.5130451 0.0021767044            0   0.51086839    1.5682024    2.0812475   -2.5525083 
  910000     1.115619 -5.9537289e-06   0.41842109  0.017542038            0   0.40087906    1.6315928    2.0500139     1.440352 
  915000   0.93527165 0.00014493684   0.70617089  0.027364759            0   0.67880613    1.3678348    2.0740057    16.915538 
  920000    1.1733089 1.5979329e-05   0.39743529  0.012453194            0    0.3849821    1.7159643    2.1133996    3.7496829 
  925000    1.1470772 -2.7457347e-05   0.41490804 0.0010916287            0   0.41381641    1.6776005    2.0925085  -0.71912384 
  930000   0.99697412 -5.4229379e-05   0.64800398 0.0053362533            0   0.64266773    1.4580747    2.1060786   -3.4470098 
  935000    1.1459101 3.4699845e-05   0.46573063    0.0111561            0   0.45457453    1.6758935    2.1416241    5.6948883 
  940000    1.0311107 7.7251852e-05   0.59355723 0.0091625362            0    0.5843947    1.5079994    2.1015567    10.012146 
  945000    1.0826637 3.5084026e-05   0.48869571  0.013375547            0   0.47532016    1.5833956    2.0720913    5.6646957 
  950000    1.0431236 4.0078501e-05   0.53758168  0.018908603            0   0.51867307    1.5255682    2.0631499    6.1671885 
  955000    1.0423646 -4.3704075e-05   0.56166604  0.034316574            0   0.52734947    1.5244583    2.0861243    -2.389173 
  960000    1.1124165 -5.3921723e-06   0.47453371   0.01997465            0   0.45455906    1.6269092    2.1014429    1.5492845 
  965000     0.952168 -4.2444702e-05    0.7595251 0.0069480681            0   0.75257703    1.3925457    2.1520708   -2.1942667 
  970000    1.0391441 4.9099378e-05   0.61152448  0.010827303            0   0.60069718    1.5197483    2.1312727     7.159049 
  975000    1.1283256 -4.4833974e-05   0.50704042 0.0077848021            0   0.49925562    1.6501762    2.1572166   -2.4337823 
  980000    1.1911718 1.9637967e-05   0.39591368 0.0076933928            0   0.38822029    1.7420887    2.1380024    4.1489302 
  985000    1.0425432 -6.0525047e-05   0.63754801 0.0021543872            0   0.63539363    1.5247195    2.1622675   -4.0354973 
  990000    1.1411383 4.2473376e-06   0.49302231 0.00097756183            0   0.49204475    1.6689147     2.161937    2.5968644 
  995000    1.2069619 -5.1540758e-06   0.41250201 0.0014782983            0   0.41102371    1.7651818    2.1776838    1.6499065 
 1000000    1.0503977 -1.9932791e-05   0.62841841 0.00056380044            0   0.62785461    1.5362067    2.1646251   0.12350729 
 1005000     1.096367 -0.00010303902   0.58251939 0.0075524242            0   0.57496696    1.6034368    2.1859562   -8.3652397 
 1010000    1.0714513 6.8787632e-05   0.62190138  0.011881946            0   0.61001944    1.5669975    2.1888988    9.2327524 
 1015000    1.0887607 -3.952708e-05   0.62840299  0.021847037            0   0.60655595    1.5923126    2.2207155   -1.8268575 
 1020000    1.1800764 4.0100838e-06   0.51706277  0.062362926            0   0.45469984    1.7258617    2.2429245     2.653557 
 1025000    1.1003508 1.2563298e-05   0.61120658   0.01494415            0   0.59626243    1.6092631    2.2204697    3.5069514 
 1030000    1.1065836 -7.8268966e-05   0.61746656            0            0   0.61746656    1.6183785    2.2358451   -5.7788971 
 1035000    1.1636798 4.2281545e-05   0.56844775            0            0   0.56844775    1.7018817    2.2703295    6.5999597 
 1040000    1.1989683 -2.2010058e-05   0.53769881 0.00068913866            0   0.53700967    1.7534912      2.29119  0.037360062 
 1045000    1.1930035 -2.8706276e-05   0.55310099  0.025370924            0   0.52773006    1.7447676    2.2978685  -0.64165413 
 1050000    1.1593488 -4.2233001e-06   0.63350982  0.059675639            0   0.57383419    1.6955477    2.3290575    1.8965916 
 1055000    1.2730425 -2.4110971e-05   0.50557663 0.0044279596            0   0.50114867    1.8618247    2.3674013  -0.10156205 
 1060000    1.1848546 1.0812253e-05    0.6555543            0            0    0.6555543    1.7328498    2.3884041    3.4955788 
 1065000    1.2893851 0.00012978204   0.47506838 0.00075097758            0   0.47431741    1.8857257    2.3607941    15.650475 
 1070000    1.1736418 5.040617e-06   0.64282536  0.015189121            0   0.62763624    1.7164512    2.3592765    2.8754357 
 1075000    1.2397913 -6.6604399e-07   0.57803826  0.067358609            0   0.51067965    1.8131948     2.391233    2.3230301 
 1080000    1.1878811 -9.1873272e-05   0.68866166  0.040848869            0   0.64781279    1.7372761    2.4259377   -6.9818853 
 1085000    1.3628852 1.4410238e-05   0.42482674  0.013900042            0   0.41092669    1.9932197    2.4180464    3.8936548 
 1090000    1.3703192 0.00014308507   0.46734945  0.027612715            0   0.43973674    2.0040918    2.4714412    17.123353 
 1095000    1.1071079 -3.3984841e-05   0.79522335 0.0094107209            0   0.78581263    1.6191453    2.4143686   -1.0656791 
 1100000    1.3526346 4.2607843e-05    0.4886119 3.9230648e-05            0   0.48857266    1.9782281      2.46684    6.8298832 
 1105000      1.28036 6.0398486e-05   0.56411116            0            0   0.56411116    1.8725265    2.4366377    8.6214426 
 1110000    1.3720466 -8.3169072e-05   0.48826264 0.00066010495            0   0.48760254    2.0066182    2.4948808   -6.0216322 
 1115000    1.3002588 -2.805749e-06   0.56091407 0.0058602137            0   0.55505386    1.9016286    2.4625426    2.1752339 
 1120000    1.1882313 3.7621492e-05   0.70717788  0.005741095            0   0.70143679    1.7377882    2.4449661    6.2974069 
 1125000    1.1459742 -4.1157303e-05   0.71006174  0.017300462            0   0.69276128    1.6759873    2.3860491   -1.8284587 
 1130000    1.3689882 8.6219059e-06   0.41353834   0.03190778            0   0.38163056    2.0021453    2.4156836    3.2985668 
 1135000    1.1672476 3.8981995e-05   0.67333933  0.014708482            0   0.65863084    1.7070997     2.380439    6.3721953 
 1140000    1.2449638 -0.00011851369   0.54369683  0.012354282            0   0.53134255    1.8207596    2.3644564   -9.7713455 
 1145000    1.2741325 -0.00013171358   0.49042565 0.0062696341            0   0.48415601    1.8634189    2.3538445   -11.133626 
 1150000    1.2761635 1.3771961e-05   0.46329968 0.00073251566            0   0.46256716    1.8663891    2.3296888    3.7399376 
 1155000    1.1362853 5.410144e-05   0.59973912            0            0   0.59973912    1.6618172    2.2615563    7.8015438 
 1160000    1.0181003 -7.4538264e-06   0.75704552            0            0   0.75704552    1.4889716    2.2460172    1.4827453 
 1165000    1.1546018 -7.8503079e-05   0.56750085 0.0023637336            0   0.56513712    1.6886052     2.256106   -5.7826093 
 1170000    1.2045375 -2.1953751e-05   0.51034873  0.013619201            0   0.49672953    1.7616361    2.2719849  0.023920758 
 1175000     1.107014 -7.429256e-05   0.61189948 0.0099502308            0   0.60194925     1.619008    2.2309075   -5.3766507 
 1180000    1.1812209 -9.0908454e-05   0.49954879 0.0043550836            0   0.49519371    1.7275356    2.2270844   -7.0819414 
 1185000    1.1579112 -4.0840843e-05   0.50076528  0.032095052            0   0.46867023    1.6934452    2.1942105   -1.9878918 
 1190000     1.169514 1.7519214e-06   0.45244392  0.010610093            0   0.44183382    1.7104142    2.1628581    2.3422548 
 1195000    1.1669785 7.3549128e-05   0.41953796            0            0   0.41953796    1.7067061     2.126244    9.6576748 
 1200000    1.0642603 3.7588508e-05   0.56665263            0            0   0.56665263    1.5564807    2.1231333    5.9721965 
 1205000    1.1298604 2.4619485e-05   0.46646583 0.00045134465            0   0.46601448    1.6524208    2.1188866    4.6399219 
 1210000    1.0267855 4.060532e-05   0.59408568  0.051753501            0   0.54233218    1.5016738    2.0957595    6.2537442 
 1215000    1.0140507 1.5733995e-05   0.59314893  0.060924665            0   0.53222427    1.4830491    2.0761981    3.6873592 
 1220000    1.0932077 0.00010075294   0.47405435 0.0032912097            0   0.47076314    1.5988162    2.0728706    12.389972 
 1225000    1.0334043 5.1493654e-06   0.56441025 0.0014941621            0   0.56291609    1.5113538     2.075764     2.603059 
 1230000    1.0920349 -0.00010004311   0.46998704   0.01679782            0   0.45318922     1.597101     2.067088   -8.1773262 
 1235000     1.186232 -1.871705e-05   0.35302008  0.036942551            0   0.31607753    1.7348643    2.0878844   0.17125845 
 1240000    1.0866184 -7.578999e-06   0.50519523 0.0044706588            0   0.50072457    1.5891794    2.0943747    1.3182852 
 1245000    1.1051963 5.9676475e-05   0.52232678 0.0080854696            0   0.51424131    1.6163497    2.1386764    8.2495475 
 1250000    1.0412322 -0.00012542149   0.59135018  0.013851986            0    0.5774982    1.5228021    2.1141523   -10.729009 
 1255000   0.99178266 -9.3421258e-05   0.64364101  0.025380338            0   0.61826067    1.4504821    2.0941231   -7.4722137 
 1260000    1.1573358 6.2853734e-06   0.37969336   0.01891812            0   0.36077524    1.6926037     2.072297    2.7159192 
 1265000    1.1111705 -8.3960622e-07   0.44691377 0.0035931055            0   0.44332066    1.6250868    2.0720006    1.9860249 
 1270000    1.0006404 5.6671577e-05   0.54038628 0.0021072282            0   0.53827905    1.4634366    2.0038229    7.8069923 
 1275000   0.91214687 -5.0560966e-06   0.61625706 0.0014875792            0   0.61476948    1.3340148    1.9502719    1.4325276 
 1280000   0.98444259 0.00010425149   0.48977719  0.012857443            0   0.47691975    1.4397473    1.9295245    12.604877 
 1285000    1.0541381 6.3441465e-05   0.41019941  0.042869902            0   0.36732951     1.541677    1.9518765    8.4482824 
 1290000   0.95776344 2.5307715e-05   0.58554256  0.048234101            0   0.53730846     1.400729    1.9862716    4.5777816 
 1295000   0.96274846 -4.5932189e-05   0.54040146  0.018763266            0   0.52163819    1.4080196    1.9484211   -2.7550351 
 1300000   0.91696955 -4.6434917e-05   0.59983964 0.0088970707            0   0.59094257     1.341068    1.9409076   -2.8140279 
 1305000    0.8906116 9.0620112e-05   0.59223885  0.013922434            0   0.57831642    1.3025195    1.8947583    11.174258 
 1310000   0.98585395 1.9940559e-05   0.42609807 0.0046362163            0   0.42146186    1.4418114    1.8679095    3.9098227 
 1315000    1.0108479 -1.4129783e-05   0.38810158 0.0029870424            0   0.38511454     1.478365    1.8664666   0.41957684 
 1320000   0.83938099 -3.4671504e-05   0.59439412  0.017926763            0   0.57646736    1.2275947    1.8219888   -1.7283731 
 1325000    0.8747145 -8.3661472e-06   0.55822898  0.023690308            0   0.53453867      1.27927    1.8374989   0.98080547 
 1330000   0.88885467 9.2329117e-05   0.55293741 0.0092675835            0   0.54366983      1.29995    1.8528874    11.307389 
 1335000    0.8042009 1.0053133e-05   0.67931335  0.023756179            0   0.65555717    1.1761438    1.8554572     2.884898 
 1340000    0.8900762 4.5020045e-05   0.55581984  0.039834403            0   0.51598543    1.3017364    1.8575563    6.4676089 
 1345000    1.0010144 -1.2443351e-05   0.37508528  0.018467282            0     0.356618    1.4639836    1.8390688   0.56486968 
 1350000   0.96218175 -8.0998278e-05   0.46766106  0.010024844            0   0.45763621    1.4071908    1.8748519   -6.4193718 
 1355000   0.95401023 -5.0149638e-07   0.50364787  0.018920456            0   0.48472742      1.39524    1.8988878    1.8475346 
 1360000    0.9341111 1.2997431e-05   0.57901082  0.033373362            0   0.54563746    1.3661375    1.9451483    3.2760852 
 1365000   0.90232195 6.1987747e-05   0.58041927  0.024503284            0   0.55591599    1.3196459    1.9000651    8.2476105 
 1370000   0.96250802 3.5509223e-05   0.47133081  0.033098322            0   0.43823249     1.407668    1.8789988    5.5151432 
 1375000   0.92655958 8.0520132e-07   0.53381673  0.050596446            0   0.48322029    1.3550934    1.8889101    1.9713627 
 1380000   0.88754872 -0.00010479582   0.60135847 0.0032299539            0   0.59812852      1.29804    1.8993985   -8.8316939 
 1385000   0.87897103 5.2621246e-05   0.63344127 0.0043679954            0   0.62907328    1.2854951    1.9189364     7.307352 
 1390000   0.93933682 -3.6826942e-05   0.54696059  0.010442752            0   0.53651784    1.3737801    1.9207407   -1.8503382 
 1395000    1.0862332 -1.3160182e-05   0.36429281   0.01304831            0    0.3512445     1.588616    1.9529088   0.60530617 
 1400000   0.89382712 -4.7056191e-05   0.65769463 0.0086905343            0    0.6490041    1.3072222    1.9649168   -2.8536371 
 1405000   0.86406916 -0.00014324782   0.70538959  0.017459897            0   0.68792969    1.2637012    1.9690907   -12.699486 
 1410000   0.93822369 -1.201383e-05   0.63169564  0.034587927            0   0.59710771    1.3721521    2.0038478   0.77363164 
 1415000   0.98687766 5.7383103e-05   0.56085261  0.057970834            0   0.50288178    1.4433086    2.0041612    7.8801909 
 1420000   0.93825743 -8.0026503e-05   0.58922579  0.093158859            0   0.49606693    1.3722015    1.9614273   -6.2332866 
 1425000   0.95489324 -5.7316095e-05   0.62177468 0.0039908271            0   0.61778385    1.3965314     2.018306   -3.8508621 
 1430000   0.99098043 2.9941838e-05   0.57672954 0.00019051235            0   0.57653903    1.4493089    2.0260384    5.0920826 
 1435000   0.99517034 0.00011391872   0.60060783 0.0032232249            0    0.5973846    1.4554366    2.0560445    13.721321 
 1440000   0.94087522 2.3759144e-05   0.68042257  0.011165859            0   0.66925672      1.37603    2.0564526    4.4893889 
 1445000   0.99866168 -6.6796947e-05    0.5899056   0.01276616            0   0.57713944    1.4605427    2.0504483   -4.7895591 
 1450000    1.0273054 -5.8155758e-05   0.57537816  0.022298598            0   0.55307957    1.5024342    2.0778123   -3.8773373 
 1455000   0.95048124 -7.1030704e-05   0.69442342  0.042999222            0    0.6514242    1.3900788    2.0845022   -5.1890418 
 1460000    1.0754533 -5.5375096e-05   0.51779112  0.040670515            0   0.47712061    1.5728504    2.0906416   -3.5797683 
 1465000    0.9852137 -9.5178276e-05   0.61510393  0.010615923            0     0.604488     1.440875     2.055979   -7.6902765 
 1470000   0.93010219 9.2153281e-06   0.73776047  0.007274021            0   0.73048645    1.3602745    2.0980349    3.0416845 
 1475000   0.95948732 6.8759207e-05   0.69531609 0.0016482547            0   0.69366784    1.4032502    2.0985663    9.1395091 
 1480000    1.0762181 4.2849881e-05    0.5663654            0            0    0.5663654     1.573969    2.1403344    6.5281623 
 1485000    1.0757618 -5.2509663e-05   0.53693853  0.040776194            0   0.49616234    1.5733017    2.1102402   -3.2667492 
 1490000   0.92697223 -4.4829826e-05   0.75196956   0.13089504            0   0.62107452    1.3556969    2.1076665   -2.4829078 
 1495000    1.0064812 -3.5699262e-05   0.60991754  0.043609738            0    0.5663078    1.4719787    2.0818963   -1.5737081 
 1500000    1.0325313 -5.1139144e-05   0.57935301  0.049830883            0   0.52952213    1.5100771    2.0894301   -3.1472183 
 1505000    1.0446064 1.8165975e-06   0.54455904  0.026456052            0   0.51810299    1.5277368    2.0722959    2.2583155 
 1510000   0.95576011 3.3613895e-05    0.7072368  0.031104992            0   0.67613181    1.3977992     2.105036    5.5470988 
 1515000   0.96377987 3.3905448e-05   0.69457505  0.066043771            0   0.62853128    1.4095281    2.1041031     5.576021 
 1520000    0.8955328 -1.9149968e-06   0.81571126  0.069995475            0   0.74571578    1.3097167     2.125428    1.9293323 
 1525000    1.1355435 -4.7902601e-05   0.45727984 0.0082059231            0   0.44907391    1.6607323    2.1180122   -2.7872142 
 1530000   0.98518392 -3.7039926e-05   0.72137725            0            0   0.72137725    1.4408315    2.1622087   -1.6306797 
 1535000    1.1269293 3.6875045e-05   0.53200856            0            0   0.53200856    1.6481341    2.1801427    5.9561473 
 1540000    1.0098533 9.4150457e-06   0.64556183            0            0   0.64556183    1.4769105    2.1224724     3.086573 
 1545000    1.1773614 -6.9326161e-05   0.41351879 0.0043392728            0   0.40917952     1.721891    2.1354098   -4.9635891 
 1550000   0.99477423 4.205983e-05    0.7002135   0.04417974            0   0.65603376    1.4548573    2.1550708    6.4619974 
 1555000    1.0399645 -8.6398483e-06    0.6006175  0.064393268            0   0.53622423     1.520948    2.1215655    1.2368451 
 1560000   0.97769889 -8.891673e-05   0.70604933  0.039956176            0   0.66609315    1.4298846    2.1359339   -6.9691392 
 1565000    1.1114325 1.5569097e-05   0.51490717  0.025986344            0   0.48892083    1.6254701    2.1403773    3.7346528 
 1570000   0.95659904 -9.050737e-06   0.76420912  0.018949234            0   0.74525988    1.3990261    2.1632352    1.2364398 
 1575000    1.0063731 -3.0141908e-06   0.68435125  0.011449582            0   0.67290167    1.4718206    2.1561719    1.8475187 
 1580000    1.0833657 1.2155623e-05   0.63476027  0.021302012            0   0.61345825    1.5844224    2.2191827    3.4639184 
 1585000   0.96127815 -3.8807525e-06   0.80157572  0.054908021            0    0.7466677    1.4058693     2.207445     1.810056 
 1590000    1.0205781 -1.8411725e-05   0.73219456  0.054145175            0   0.67804938    1.4925955      2.22479   0.33942939 
 1595000   0.98286062 -1.8585999e-05   0.81584599  0.052844868            0   0.76300112    1.4374336    2.2532796   0.35007336 
 1600000    1.0975997 -5.4608074e-05   0.65003191 0.0091547407            0   0.64087717    1.6052396    2.2552715   -3.3365952 
 1605000   0.97563438 8.7106985e-05   0.78892072 0.0052426387            0   0.78367808    1.4268653     2.215786    11.135541 
 1610000    1.1318494 8.2232422e-05   0.59098703  0.015694761            0   0.57529227    1.6553297    2.2463167    10.666917 
 1615000     1.218105 -8.5720819e-05   0.45396627  0.011769298            0   0.44219697    1.7814786    2.2354448    -6.542367 
 1620000    1.1029137 -5.0004131e-05   0.62795168 0.0047668553            0   0.62318482    1.6130112    2.2409629   -2.8794601 
 1625000     1.041767 3.3445099e-05   0.76542143 0.00020472592            0    0.7652167    1.5235843    2.2890057    5.7137839 
 1630000    1.1319662 3.1292308e-05   0.66617211 0.0062054517            0   0.65996666    1.6555006    2.3216727    5.5260051 
 1635000    1.0852695 4.5758669e-05   0.75668705   0.03258602            0   0.72410103    1.5872067    2.3438937    7.0295815 
 1640000   0.86160975 9.9413465e-06    1.1013682 0.0098167598            0    1.0915514    1.2601043    2.3614724    3.3794663 
 1645000    1.0901583 -6.4158681e-05   0.77724059            0            0   0.77724059    1.5943565    2.3715971   -4.1982519 
 1650000    1.2245185 -3.6684985e-05   0.54859335 0.00041396886            0   0.54817939    1.7908583    2.3394517   -1.4170908 
 1655000    1.0147997 1.4877087e-05   0.84214417 0.0018284709            0    0.8403157    1.4841445    2.3262887    3.8497024 
 1660000    1.0734097 -2.8170058e-05   0.76939343 0.00047251052            0   0.76892092    1.5698618    2.3392552  -0.54535875 
 1665000    1.2900636 1.2441823e-07   0.50719624 0.0058914769            0   0.50130476    1.8867181    2.3939143    2.4066547 
 1670000    1.1966335 3.4813177e-05   0.63897654  0.032400963            0   0.60657558    1.7500765    2.3890531    5.9539224 
 1675000    1.3233682 1.6128695e-05   0.47292591  0.032451039            0   0.44047487    1.9354261     2.408352    4.0599304 
 1680000    1.2730058 1.438217e-05   0.52248145 0.0042777614            0   0.51820369     1.861771    2.3842525    3.8569867 
 1685000    1.0719047 -5.7658574e-05   0.76696164 0.0044185918            0   0.76254305    1.5676606    2.3346223   -3.5696157 
 1690000   0.99079624 -7.0727276e-05   0.88373552 0.0058769754            0   0.87785855    1.4490395     2.332775    -4.909698 
 1695000      1.03864 -3.1812837e-05   0.82861535  0.021730756            0    0.8068846    1.5190109    2.3476263  -0.91000824 
 1700000    1.2644386 3.3395472e-05    0.5126833  0.024241976            0   0.48844133    1.8492414    2.3619248    5.7816211 
 1705000    1.0950252 6.6821853e-05   0.76411574  0.052466981            0   0.71164876    1.6014744    2.3655901    9.2081479 
 1710000   0.97360359 3.0224425e-06   0.96186728   0.10551045            0   0.85635683    1.4238953    2.3857625    2.6952606 
 1715000    1.1716163 -3.9637152e-05   0.66562247   0.01459118            0   0.65103129    1.7134889    2.3791113   -1.6797331 
 1720000    1.2243777 4.551528e-05   0.60966062  0.029822119            0    0.5798385    1.7906524     2.400313    7.0610777 
 1725000    1.1713912 6.8866201e-05   0.71361416  0.057446237            0   0.65616792    1.7131596    2.4267738    9.4786728 
 1730000    1.1538819 1.0438518e-05   0.72206135   0.02178959            0   0.70027176    1.6875523    2.4096136    3.4785179 
 1735000    1.1214335 -3.4784047e-05   0.74377752  0.061122026            0   0.68265549    1.6400965    2.3838741   -1.1780123 
 1740000    1.2016915 -4.3335058e-05   0.61685607  0.021764429            0   0.59509164    1.7574738    2.3743299     -2.06318 
 1745000    1.1634543 4.7201109e-05   0.64208946 8.4596031e-05            0   0.64200486    1.7015519    2.3436414    7.1770349 
 1750000    1.0452254 0.00010141573   0.77741451 0.0064854185            0    0.7709291    1.5286421    2.3060566    12.691027 
 1755000    1.1322339 -3.5358903e-05   0.66898291   0.01529546            0   0.65368745    1.6558921     2.324875   -1.2958766 
 1760000    1.1626668 -0.00012430234   0.61820779  0.010785045            0   0.60742275    1.7004002     2.318608   -10.409952 
 1765000    1.0734463 -4.6441919e-05   0.75002689  0.041824268            0   0.70820263    1.5699152    2.3199421   -2.4357104 
 1770000   0.91042064 4.9417662e-05   0.98739837   0.14053855            0   0.84685982    1.3314902    2.3188886    7.3792571 
 1775000    1.1511866 3.9286396e-05   0.67004563  0.045147521            0   0.62489811    1.6836105    2.3536561     6.376583 
 1780000    1.1659857 -4.5798731e-05   0.66413361 0.0028773905            0   0.66125622     1.705254    2.3693876   -2.3204024 
 1785000     1.034378 -1.0900617e-05   0.82908118            0            0   0.82908118    1.5127779     2.341859    1.2256359 
 1790000     1.141563 3.115072e-05   0.61698066            0            0   0.61698066    1.6695358    2.2865165    5.4763502 
 1795000    1.2085086 3.8422542e-05     0.547056            0            0     0.547056    1.7674438    2.3144998     6.248968 
 1800000    1.1386239 -5.8988935e-05   0.67195429            0            0   0.67195429    1.6652374    2.3371917   -3.7032752 
 1805000    1.1813768 -0.00014004131   0.61041332 5.6669597e-05            0   0.61035665    1.7277636    2.3381769   -12.002053 
 1810000    1.1542298 -1.2559378e-05   0.68201463 0.00040277647            0   0.68161185     1.688061    2.3700757    1.0839953 
 1815000    1.1213536 9.5701324e-05   0.73402536  0.021547764            0    0.7124776    1.6399797    2.3740051    12.173821 
 1820000    1.1590035 -8.3957413e-06   0.67558527  0.030439115            0   0.64514615    1.6950427    2.3706279     1.510904 
 1825000    1.2237286 -4.4390761e-05   0.57800623  0.013826903            0   0.56417933    1.7897031    2.3677094   -2.1779046 
 1830000     1.199308 4.5255182e-05   0.59973281   0.03144037            0   0.56829244    1.7539879    2.3537207    6.9878513 
 1835000    1.1100088 3.2780165e-05    0.7380102   0.05479702            0   0.68321318    1.6233879    2.3613981     5.718087 
 1840000    1.3052943 1.4911864e-05   0.48150271  0.012059969            0   0.46944274    1.9089929    2.3904956    3.9174705 
 1845000    1.1785938 2.3138564e-05   0.69053145 0.0040165053            0   0.68651494    1.7236935     2.414225    4.7836139 
 1850000    1.2286603 5.5658251e-05   0.63281282  0.014377848            0   0.61843497    1.7969157    2.4297285    8.1291334 
 1855000    1.3737656 1.4904352e-05   0.42142999   0.02039135            0   0.40103864    2.0091323    2.4305622    3.9567678 
 1860000    1.2797705 -1.2317729e-05   0.59933463  0.010139253            0   0.58919538    1.8716644     2.470999    1.2096635 
 1865000    1.1463375 2.4163107e-05    0.8193601   0.12162974            0   0.69773036    1.6765186    2.4958787    4.9701809 
 1870000    1.0881603 1.1140129e-05   0.87401467  0.034745291            0   0.83926938    1.5914345    2.4654492    3.6061984 
 1875000    1.1922465 -6.8544108e-05   0.72576767  0.023329132            0   0.70243854    1.7436605    2.4694282   -4.5494885 
 1880000    1.2145413 -3.7035016e-05   0.65937004  0.062584617            0   0.59678543    1.7762667    2.4356367   -1.3567489 
 1885000    1.0981776 -4.7457475e-05   0.78796735  0.036154273            0   0.75181307    1.6060848    2.3940521   -2.4655933 
 1890000    1.2865702 -6.9834691e-05    0.5256342 0.0093930498            0   0.51624115     1.881609    2.4072432   -4.7438292 
 1895000    1.1761324 5.4275303e-05   0.65987645 2.4262592e-05            0   0.65985219    1.7200936      2.37997    7.9377611 
 1900000    1.2132493 7.6327919e-05   0.62466074            0            0   0.62466074    1.7743771    2.3990378    10.215017 
 1905000    1.2565152 8.5420825e-05   0.56362924            0            0   0.56362924    1.8376535    2.4012828    11.148375 
 1910000    1.2297439 9.5749757e-05    0.5943664 0.0028747727            0   0.59149163    1.7985004    2.3928668    12.197642 
 1915000    1.3142697 2.5249609e-05   0.52345708 0.0087001125            0   0.51475696    1.9221194    2.4455765    5.0311364 
 1920000    1.1827904 -6.9958647e-05   0.80955541 0.0034498878            0   0.80610552    1.7298309    2.5393864   -4.6243791 
 1925000    1.2299285 -7.6570576e-05   0.68443998 0.00023172111            0   0.68420826    1.7987704    2.4832103   -5.3576166 
 1930000    1.3242047 5.5848721e-05   0.57441604  0.037947908            0   0.53646814    1.9366494    2.5110654    8.2299744 
 1935000    1.3372109 6.6910399e-05   0.55595374  0.075709976            0   0.48024377     1.955671    2.5116247    9.3632496 
 1940000    1.1479182 2.231789e-05   0.82470212   0.12841162            0    0.6962905    1.6788304    2.5035325    4.7888844 
 1945000    1.3157606 -5.4893996e-05   0.58855404  0.042335247            0   0.54621879    1.9242999    2.5128539   -3.1082912 
 1950000    1.3016266 -3.3202769e-05   0.63754333  0.008558461            0   0.62898487    1.9036289    2.5411722  -0.85879128 
 1955000    1.1550281 0.00012578933   0.82802327  0.020429961            0   0.80759331    1.6892286    2.5172519     15.39808 
 1960000    1.3576738 6.5678372e-05   0.54137375  0.017893939            0   0.52347981    1.9855979    2.5269717     9.252437 
 1965000    1.3366388 -4.688053e-05   0.58860251  0.003325679            0   0.58527683    1.9548343    2.5434368   -2.2571295 
 1970000    1.2243072 -8.2829943e-06   0.71865998  0.018135612            0   0.70052436    1.7905493    2.5092093    1.6610306 
 1975000    1.2841486 -2.2950872e-05    0.6897069  0.052174955            0   0.63753195    1.8780673    2.5677742   0.21760497 
 1980000    1.1996427 -1.4709677e-05   0.76339245  0.023947211            0   0.73944524    1.7544774    2.5178698     1.011599 
 1985000    1.2630741 0.00010871258   0.65813143 0.0087922806            0   0.64933915    1.8472459    2.5053773    13.637545 
 1990000    1.2908815 2.7019264e-05     0.633141  0.028179789            0   0.60496121    1.8879142    2.5210552    5.2878278 
 1995000    1.3291458 -6.4902981e-05   0.56455277  0.085061975            0    0.4794908    1.9438757    2.5084285   -4.1376367 
 2000000    1.2102344 8.050455e-05   0.72972119  0.082478561            0   0.64724263    1.7699678    2.4996889    10.743355 
 2005000    1.2380607 5.9824668e-05   0.66121175  0.086018867            0   0.57519289    1.8106637    2.4718755    8.5979215 
 2010000    1.2712675 4.8770054e-06   0.54243581  0.012448578            0   0.52998723    1.8592287    2.4016645    2.9010699 
 2015000     1.248505 -3.8190851e-06   0.55155421 0.00031092461            0   0.55124329    1.8259386    2.3774928    1.9864185 
 2020000    1.2089304 -4.5228205e-05    0.6433908 0.00026823818            0   0.64312256    1.7680607    2.4114515   -2.2199167 
 2025000    1.2085661 -2.2629117e-05   0.64486847  0.003681403            0   0.64118707    1.7675279    2.4123963  0.095174706 
 2030000    1.3212792 6.1330988e-05   0.51657551  0.017144964            0   0.49943054    1.9323708    2.4489463    8.7292395 
 2035000     1.266505 4.6622266e-05   0.62010689  0.030249074            0   0.58985782    1.8522635    2.4723704    7.2464905 
 2040000    1.2113696 -5.9871085e-05   0.70827587  0.033417393            0   0.67485848    1.7716281     2.479904   -3.6508951 
 2045000    1.0853305 -4.0339615e-06   0.85832421  0.035671165            0   0.82265304    1.5872959    2.4456201    2.0325424 
 2050000    1.1899478 1.6130223e-06   0.67559959  0.015318069            0   0.66028152    1.7402986    2.4158982    2.5810717 
 2055000    1.3065691 1.9347993e-05   0.47930513  0.033026636            0   0.44627849    1.9108574    2.3901625     4.371397 
 2060000    1.1753028 -4.1058033e-05   0.69551169  0.021581075            0   0.67393062    1.7188804    2.4143921   -1.7899506 
 2065000    1.0431744 -8.2935406e-05   0.90819783 0.0008360738            0   0.90736176    1.5256426    2.4338404   -6.0587452 
 2070000    1.2056459 -7.688321e-05   0.68134298  0.047220678            0    0.6341223    1.7632571    2.4446001   -5.4282406 
 2075000    1.1805959 -6.0482638e-05    0.6905082   0.07202434            0   0.61848386    1.7266215    2.4171297   -3.7762925 
 2080000    1.2386408 1.4571115e-06   0.61751819  0.069849355            0   0.54766883    1.8115122    2.4290304    2.5782386 
 2085000    1.1874475 3.7988793e-05   0.64051273  0.011941631            0    0.6285711     1.736642    2.3771547    6.2672071 
 2090000    1.3013739 -4.4400493e-05   0.48474099  0.042986204            0   0.44175478    1.9032593    2.3880003   -2.1586101 
 2095000    1.1731504 -5.0922982e-05   0.68322632  0.046167966            0   0.63705836    1.7157324    2.3989587   -2.8155546 
 2100000    1.0364062  7.68673e-05   0.86677698  0.077150573            0   0.78962641     1.515744     2.382521    10.253733 
 2105000    1.2789119 3.2108625e-05   0.50880318  0.037346882            0    0.4714563    1.8704087    2.3792119    5.6671351 
 2110000    1.2037779 3.3282643e-05   0.63521707  0.029369936            0   0.60584713    1.7605252    2.3957423     5.803885 
 2115000     1.161213 2.8194383e-05   0.72424447  0.071521227            0   0.65272324    1.6982741    2.4225185    5.3096233 
 2120000    1.0764588 -8.1932889e-05   0.83000104  0.037934988            0   0.79206605     1.574321     2.404322   -5.9856058 
 2125000    1.2501792 -7.3131586e-07   0.57079291  0.049206104            0    0.5215868     1.828387    2.3991799    2.3242932 
 2130000    1.1754225 6.8196556e-05   0.70455712  0.089191557            0   0.61536556    1.7190555    2.4236126    9.4069399 
 2135000    1.2195716 -8.6888268e-05   0.64247913  0.014819599            0   0.62765953    1.7836234    2.4261025   -6.4712561 
 2140000    1.3365935 2.0051399e-05   0.48586464 0.0071437139            0   0.47872093     1.954768    2.4406326    4.4938959 
 2145000    1.1005157 0.00014669971    0.8172239  0.037497086            0   0.77972682    1.6095043    2.4267282    17.448778 
 2150000    1.1453663 7.9343808e-06   0.70890723  0.016196194            0   0.69271103    1.6750982    2.3840054     3.196486 
 2155000    1.1742504 -4.625781e-05   0.62050366  0.013459048            0   0.60704461    1.7173413    2.3378449   -2.3989548 
 2160000    1.1047689 -4.0466525e-06   0.71579025  0.032246538            0   0.68354372    1.6157246    2.3315148    1.9171376 
 2165000    1.1423386 4.2018018e-05   0.65898802 0.0098630181            0     0.649125    1.6706701    2.3296581    6.6323032 
 2170000    1.1384351 1.0219266e-05   0.67526566 0.00028476267            0    0.6749809    1.6649613    2.3402269    3.3866798 
 2175000    1.1483459 -2.6650496e-05   0.62359228  0.012508322            0   0.61108395    1.6794559    2.3030482  -0.42596255 
 2180000    1.1334251 4.435717e-05   0.67679829  0.095249897            0   0.58154839    1.6576342    2.3344325    6.8766067 
 2185000    1.2573431 7.5297263e-07   0.51125112  0.025106368            0   0.48614475    1.8388643    2.3501155    2.4272198 
 2190000    1.2474813 -7.6574217e-05   0.50606024  0.010174512            0   0.49588573    1.8244414    2.3305016   -5.5106982 
 2195000    1.1646522 3.9399055e-05   0.63405268  0.031168672            0   0.60288401    1.7033039    2.3373565    6.3718198 
 2200000    1.1716796 6.2951961e-05   0.61690854  0.038544706            0   0.57836384    1.7135814    2.3304899    8.7767707 
 2205000    1.1640534 -8.4709655e-05   0.63749729  0.015262092            0    0.6222352    1.7024281    2.3399254   -6.3343433 
 2210000    1.1586569 -7.8916049e-05   0.69505213  0.039708416            0   0.65534372    1.6945357    2.3895878   -5.6914156 
 2215000    1.1193505 3.9095439e-05   0.72017872  0.068233273            0   0.65194545    1.6370501    2.3572288    6.3606018 
 2220000     1.091251 -9.4352239e-06   0.74811147  0.011648364            0    0.7364631    1.5959545     2.344066    1.3778991 
 2225000    1.2731164 -3.6038759e-05   0.48688052 0.0057298467            0   0.48115067    1.8619328    2.3488133   -1.3415557 
 2230000    1.1551473 6.9111892e-05   0.59694412  0.036534377            0   0.56040974    1.6894029     2.286347    9.3634048 
 2235000    1.0291331 4.8102129e-05   0.79428372  0.021904291            0   0.77237943    1.5051072    2.2993909    7.2250489 
 2240000    1.0846556 -4.3979849e-05   0.70339719  0.026038222            0   0.67735897    1.5863088     2.289706   -2.2138305 
 2245000    1.1587676 1.0616393e-05   0.58814311  0.037714443            0   0.55042866    1.6946977    2.2828408    3.3699594 
 2250000    1.2460446 5.5094494e-05   0.50061421  0.011922657            0   0.48869155    1.8223403    2.3229545    7.9646306 
 2255000    1.0559806 -3.9321029e-06   0.77498422  0.036352283            0   0.73863193    1.5443717    2.3193559    1.9167085 
 2260000    1.2400364 -2.7790482e-05   0.51574188  0.048715455            0   0.46702643    1.8135533    2.3292951  -0.51645018 
 2265000    1.1226011 5.0250593e-05   0.64724074  0.049673543            0   0.59756719    1.6418042    2.2890449    7.4347056 
 2270000    1.1615331 4.8055516e-05   0.60559134  0.017970334            0     0.587621    1.6987422    2.3043336    7.2252184 
 2275000    1.1104445 -6.1361158e-05   0.63776877  0.024613446            0   0.61315533    1.6240251    2.2617939   -4.0215887 
 2280000    1.1035992 -4.6145372e-05   0.62227457  0.017667457            0   0.60460712    1.6140139    2.2362885   -2.4889977 
 2285000    1.0805878 -1.5343421e-05   0.66214839  0.013923468            0   0.64822492    1.5803597    2.2425081   0.67134176 
 2290000    1.1795375 -1.5221604e-05   0.52165242  0.033155613            0   0.48849681    1.7250736     2.246726   0.68803382 
 2295000   0.99988933 1.4195012e-05    0.7770525  0.026298552            0   0.75075395    1.4623382    2.2393907    3.6929599 
 2300000     1.150871 3.0558495e-05   0.59565485   0.04291388            0   0.55274097    1.6831488    2.2788036    5.4079935 
 2305000    1.1982418 1.2292962e-06   0.51208372  0.054409245            0   0.45767447    1.7524287    2.2645124    2.3903923 
 2310000    1.0474979 -7.3499078e-06   0.70636014 0.0021331025            0   0.70422704    1.5319657    2.2383258    1.4856953 
 2315000    1.1671475 5.3814299e-05   0.50532821  0.016843506            0    0.4884847    1.7069532    2.2122815    7.7228657 
 2320000   0.95776962 1.0374846e-05   0.79765559   0.04444267            0   0.75321292    1.4007381    2.1983937    3.2607779 
 2325000   0.98674272 4.2833921e-05   0.74645375  0.045685881            0   0.70076787    1.4431112     2.189565    6.5757585 
 2330000    1.1650539 8.1675338e-05    0.4676398  0.012698888            0   0.45494091    1.7038913    2.1715311    10.535086 
 2335000     1.033445 7.4205202e-05   0.68995522  0.062082512            0   0.62787271    1.5114133    2.2013685    9.7999812 
 2340000    1.0201884 -1.859303e-06   0.71060212  0.069797795            0   0.64080433    1.4920255    2.2026276     2.012235 
 2345000   0.96437724 -8.3926471e-05    0.7824388  0.011725566            0   0.77071324    1.4104017    2.1928405   -6.4012301 
 2350000     1.148548 4.1608356e-05   0.49127279   0.04965681            0   0.44161598    1.6797514    2.1710242    6.4317199 
 2355000    1.0622537 8.4431235e-05   0.61427661  0.032710004            0    0.5815666    1.5535461    2.1678227    10.813581 
 2360000    1.0978518 -4.7593936e-05   0.54056974 0.0024872775            0   0.53808246    1.6056082    2.1461779   -2.7274411 
 2365000    1.0409328 -6.464457e-05   0.59787606 0.0074643429            0   0.59041172    1.5223643    2.1202403   -4.4993637 
 2370000   0.94930245 -5.183781e-05   0.71015141  0.039083237            0   0.67106817    1.3883548    2.0985062   -3.2096855 
 2375000    1.1221178 8.5562142e-06   0.46092165  0.051873381            0   0.40904827    1.6410972    2.1020189    2.9781752 
 2380000    1.0632164 6.8717049e-05   0.50753424 0.0057628427            0    0.5017714     1.554954    2.0624883    9.0991141 
 2385000    1.0459408 7.1372595e-05   0.51233884 0.00024567587            0   0.51209317    1.5296884    2.0420273    9.3505809 
 2390000    1.0608768 1.6465305e-06   0.46798991 0.0089368834            0   0.45905302    1.5515323    2.0195222    2.1881269 
 2395000   0.98788741 2.2362354e-06   0.56816341  0.051505669            0   0.51665774    1.4447853    2.0129487    2.2419392 
 2400000    1.0225922 3.8853359e-05   0.57856413 0.0099357511            0   0.56862838    1.4955411    2.0741053    6.0526892 
 2405000   0.94053769 -2.4387695e-05   0.66400964 0.0013349488            0   0.66267469    1.3755364     2.039546  -0.45775397 
 2410000    1.0072824 -6.6043402e-05   0.53118848 0.0043045626            0   0.52688392    1.4731506    2.0043391   -4.7585053 
 2415000    1.1229883 -3.4414195e-05   0.38625481 0.0027671466            0   0.38348766    1.6423704    2.0286252   -1.4953884 
 2420000    1.0019631 3.7886471e-05   0.49442165 0.0040303568            0   0.49039129     1.465371    1.9597926    5.8393673 
 2425000   0.94443141 6.7625468e-05   0.57975427  0.020075801            0   0.55967846    1.3812309    1.9609852    8.8858331 
 2430000   0.98274014 2.3752939e-05   0.52521088  0.010160434            0   0.51505045    1.4372575    1.9624683    4.3947693 
 2435000    0.9297842 3.0481564e-05    0.5788208 0.0023502039            0    0.5764706    1.3598094    1.9386302    5.0599423 
 2440000   0.91210992 -3.6514266e-05   0.59146476  0.028818519            0   0.56264624    1.3339608    1.9254255   -1.8136353 
 2445000   0.91678419 -4.7310821e-05   0.57604859   0.01466585            0   0.56138274    1.3407969    1.9168455   -2.9277826 
 2450000   0.93407681 -5.9583298e-05   0.52351003  0.011894282            0   0.51161575    1.3660873    1.8895974   -4.2117323 
 2455000   0.89952359 -9.2903225e-05   0.55856353  0.046040452            0   0.51252308    1.3155532    1.8741168   -7.6391734 
 2460000    1.0561024 2.0929107e-06   0.32890338   0.03467752            0   0.29422586    1.5445498    1.8734532    2.0877672 
 2465000   0.90888431 5.8465156e-05    0.5563054  0.013662343            0   0.54264306    1.3292433    1.8855487    7.8723807 
 2470000   0.83295923 7.4703701e-06   0.63850579 0.0017474622            0   0.63675833    1.2182029    1.8567087    2.6216746 
 2475000   0.93062199 -3.122866e-05   0.49528522 1.0721181e-05            0   0.49527449    1.3610347    1.8563199   -1.3414949 
 2480000   0.92761226 -7.4215898e-06   0.50778162 0.0024305014            0   0.50535112    1.3566329    1.8644146    1.1044438 
 2485000   0.95849038 4.5392707e-05   0.54435414  0.011444661            0   0.53290948    1.4017922    1.9461463    6.5943595 
 2490000   0.92671893 5.257084e-05   0.59094287  0.023155979            0   0.56778689    1.3553264    1.9462693    7.3295233 
 2495000   0.86304117 -1.8190303e-05    0.6907852  0.024512417            0   0.66627278    1.2621977    1.9529829  0.090295903 
 2500000   0.99147686 -4.5368911e-05   0.51887138   0.05805298            0   0.46081839    1.4500349    1.9689063   -2.6768702 
 2505000   0.98478719 2.2381648e-06   0.55305504  0.029770742            0    0.5232843    1.4402513    1.9933063    2.2224944 
 2510000   0.92668224 -9.5293881e-06   0.61585293 0.00029009852            0   0.61556283    1.3552728    1.9711257   0.99531636 
 2515000   0.94464658 -2.4906759e-05   0.57696435            0            0   0.57696435    1.3815456      1.95851  -0.59194217 
 2520000    0.9873475 -1.7912567e-05   0.46271902 0.0096396441            0   0.45307938    1.4439957    1.9067147  0.072467852 
 2525000   0.81627667 -1.1296162e-05   0.75520029  0.074125543            0   0.68107474    1.1938046    1.9490049   0.79227797 
 2530000   0.95247122 6.2868881e-05   0.55964897  0.047898159            0   0.51175082    1.3929892    1.9526381    8.3904115 
 2535000    1.0143846 6.9451153e-06    0.4951573 0.0054835183            0   0.48967378    1.4835374    1.9786947    2.6898745 
 2540000   0.91527327 -1.2629483e-05   0.62047463  0.013442301            0   0.60703233    1.3385872    1.9590618   0.66580274 
 2545000   0.92422442 7.1814175e-05   0.61077399  0.029620017            0   0.58115398    1.3516782    1.9624522    9.3162237 
 2550000   0.95929541 4.5838228e-05   0.55848997  0.019364329            0   0.53912564    1.4029695    1.9614595    6.6552941 
 2555000    1.0084313 -9.8625777e-05   0.48830124 2.1452762e-05            0   0.48827979    1.4748308    1.9631321   -8.1361475 
 2560000   0.92299593 -0.00012988406   0.63627814            0            0   0.63627814    1.3498816    1.9861597   -11.313969 
 2565000   0.99119387 -2.9589582e-05   0.50766979 0.00068293091            0   0.50698686     1.449621    1.9572908   -1.0726824 
 2570000   0.85826907 -2.311765e-05   0.68920081  0.055537994            0   0.63366282    1.2552185    1.9444193    -0.422828 
 2575000   0.93555882 -2.303015e-06   0.56188037  0.085135167            0   0.47674521    1.3682548    1.9301351    1.6943064 
 2580000   0.98944901 -7.7032414e-06   0.46733681  0.033902913            0   0.43343389    1.4470692     1.914406    1.1255941 
 2585000   0.91422405 -3.3085791e-05   0.59379594  0.024027256            0   0.56976869    1.3370527    1.9308486   -1.4571364 
 2590000    1.0022645 1.7363056e-05   0.46643231  0.018120897            0   0.44831141    1.4658118    1.9322442    3.7102211 
 2595000   0.91861306 -8.136526e-05   0.58875997  0.009990158            0   0.57876981    1.3434716    1.9322316   -6.3995711 
 2600000    1.0322745 -5.1838603e-05   0.44039521  0.012802577            0   0.42759263    1.5097015    1.9500967   -3.3581763 
 2605000    1.0697694 -2.8343161e-05   0.44397231 0.0042834475            0   0.43968886    1.5645377      2.00851  -0.89382963 
 2610000   0.92848376 -2.7528856e-05   0.65238072   0.00237652            0    0.6500042    1.3579075    2.0102882  -0.80866661 
 2615000    1.0820054 -1.8501357e-05   0.44471295  0.029431266            0   0.41528169    1.5824329    2.0271459    0.1326069 
 2620000    1.0958429 -4.4181935e-05   0.38400588  0.019695525            0   0.36431035    1.6026702    1.9866761    -2.537554 
 2625000   0.99623266 3.6445405e-05   0.55462448  0.037037089            0   0.51758739    1.4569903    2.0116147    5.7436242 
 2630000    1.0344608 0.00011177436   0.51287618  0.030274237            0   0.48260194    1.5128989     2.025775     13.47147 
 2635000   0.95262887 2.9684424e-05   0.62482226 0.0056639653            0    0.6191583    1.3932197     2.018042     5.057727 
 2640000    1.0141743 2.3979596e-05   0.53078305 0.0023529526            0   0.52843009    1.4832299    2.0140129    4.4695235 
 2645000   0.95805458 9.4279899e-05   0.58394534  0.016189746            0   0.56775559    1.4011548    1.9851002    11.639362 
 2650000    1.0825803 -1.2045946e-05   0.42275518  0.025826639            0   0.39692854    1.5832737    2.0060289   0.77252406 
 2655000    1.0017019 -9.9718673e-05   0.53228927  0.038591899            0   0.49369737     1.464989    1.9972782   -8.2139139 
 2660000    0.9787177 1.9992943e-05    0.5392593   0.05448098            0   0.48477831    1.4313746    1.9706339    4.0179113 
 2665000    1.0166615 6.2174261e-05   0.46768654 0.0022008276            0   0.46548572    1.4868675     1.954554    8.3211983 
 2670000   0.99812481 -2.9871444e-05    0.5048492            0            0    0.5048492    1.4597575    1.9646067   -1.0942291 
 2675000   0.99671672 2.2409044e-05   0.55168859  0.043618657            0   0.50806994    1.4576982    2.0093868    4.3040729 
 2680000    1.0146118 1.4859837e-05   0.53048385  0.036052767            0   0.49443109    1.4838697    2.0143536    3.5360009 
 2685000   0.90299797 -0.0001122842   0.67071621  0.008103227            0   0.66261298    1.3206345    1.9913507   -9.5065518 
 2690000    1.1264018 -5.0938696e-06   0.32285049  0.013024535            0   0.30982596    1.6473627    1.9702131    1.4486009 
 2695000   0.89666871 9.2851703e-05   0.66020009  0.032863493            0    0.6273366     1.311378    1.9715781    11.479592 
 2700000    1.0013268 5.2087233e-05   0.51437749  0.013368096            0   0.50100939    1.4644405     1.978818    7.3125506 
 2705000   0.98010088 -3.11595e-07   0.51093373  0.051853573            0   0.45908015    1.4333975    1.9443313    1.9124239 
 2710000    1.0180278 -3.0048611e-05   0.47942585  0.030248575            0   0.44917727    1.4888656    1.9682915   -1.1086863 
 2715000   0.85982005 -6.1085934e-05   0.71010663 0.0092361221            0    0.7008705    1.2574868    1.9675934   -4.2876062 
 2720000    1.0391554 -8.097489e-05   0.46198716  0.019992482            0   0.44199468    1.5197647    1.9817519   -6.3100768 
 2725000    1.0005228 1.2845322e-05   0.51523538 0.0038063416            0   0.51142904    1.4632645    1.9784999    3.2938609 
 2730000    1.0448926 7.6511743e-05   0.44324508 4.6725295e-05            0   0.44319836    1.5281555    1.9714006     9.806203 
 2735000    1.0025148 9.6889409e-05   0.46827697  0.011829911            0   0.45644705    1.4661778    1.9344548     11.85593 
 2740000   0.94019399 1.6074409e-05   0.55086116  0.070428266            0    0.4804329    1.3750337    1.9258949    3.5719144 
 2745000   0.93171137 -1.5496494e-05   0.51414356  0.016717783            0   0.49742577    1.3626279    1.8767714   0.28993044 
 2750000   0.92833357 4.4616038e-05     0.504178 0.0039661179            0   0.50021189    1.3576878    1.8618658    6.4305481 
 2755000   0.86755144 -4.3406946e-05   0.57011264  0.034806231            0   0.53530641     1.268794    1.8389066   -2.6059647 
 2760000   0.97067956 -1.9698431e-05   0.45519506   0.10053068            0   0.35466438    1.4196189    1.8748139  -0.14230543 
 2765000   0.94930745 4.6421003e-05   0.48611112  0.035720571            0   0.45039055    1.3883621    1.8744733    6.6279839 
 2770000   0.95110388 -6.7905843e-06   0.49583484  0.073975316            0   0.42185953    1.3909894    1.8868243    1.1914684 
 2775000   0.98980653 -6.1710855e-06    0.4074835  0.028400356            0   0.37908314     1.447592    1.8550755    1.2231564 
 2780000   0.96727059 -1.825754e-05   0.42381074 0.0027106769            0   0.42110006    1.4146332     1.838444 -0.031128087 
 2785000   0.98828735 -2.3701874e-06   0.38852555 0.0019007306            0   0.38662482    1.4453702    1.8338958    1.5911886 
 2790000    0.9145352 2.657703e-05   0.56022003  0.010260237            0   0.54995979    1.3375077    1.8977278    4.6192156 
 2795000   0.87103586 -6.168453e-05   0.63380649    0.0252182            0   0.60858829    1.2738899    1.9076964   -4.4087995 
 2800000    1.0113387 -9.3381646e-07   0.44204344  0.029435124            0   0.41260831    1.4790829    1.9211264    1.8255035 
 2805000   0.97250136 4.7229328e-05   0.50510746  0.036916948            0   0.46819051    1.4222832    1.9273907    6.7636739 
 2810000    0.9017193 4.9565078e-05   0.55594053 0.0061480212            0    0.5497925    1.3187645     1.874705     6.950169 
 2815000   0.96705312 -1.2115817e-05   0.49179246  0.012088234            0   0.47970423    1.4143152    1.9061077   0.66544795 
 2820000    1.0270364 -2.8404098e-05   0.40400604  0.018013195            0   0.38599285    1.5020407    1.9060467   -1.0025329 
 2825000   0.94370009 -2.2137805e-05   0.53919847  0.012502922            0   0.52669555    1.3801614    1.9193599  -0.34755134 
 2830000    1.0029357 -8.3172563e-05   0.47673498 0.0034386161            0   0.47329636    1.4667934    1.9435284   -6.5733421 
 2835000    1.0163435 -9.1485536e-05   0.47552319 0.0040241098            0   0.47149908    1.4864024    1.9619256   -7.4061933 
 2840000    1.0309967 -7.7641536e-05   0.50439651  0.023505707            0    0.4808908    1.5078327    2.0122292   -5.9382641 
 2845000    1.0457052 6.4307172e-05   0.52076423  0.030892904            0   0.48987132    1.5293438     2.050108    8.6351624 
 2850000   0.96300523 9.8812678e-06   0.60272922 0.0067950582            0   0.59593416    1.4083952    2.0111244    3.0229662 
 2855000     1.110395 -2.2768778e-05   0.38349134 0.00015430959            0   0.38333703    1.6239527    2.0074441  -0.32407878 
 2860000   0.94109105 -1.6532944e-05   0.59321925 0.00099899681            0   0.59222025    1.3763457    1.9695649   0.27659142 
 2865000    1.0222654 -5.6120085e-05   0.48954304 0.0028136219            0   0.48672942    1.4950632    1.9846062   -3.7620905 
 2870000    1.1033443 1.5898969e-05   0.37614355  0.006879982            0   0.36926357     1.613641    1.9897846     3.617839 
 2875000   0.97398728 4.5100519e-05   0.56034153 0.0029823346            0   0.55735919    1.4244564    1.9847979    6.6030911 
 2880000    1.0386919 2.6728671e-06   0.45122749 0.00080810442            0   0.45041939    1.5190869    1.9703144     2.244016 
 2885000   0.99951665 1.7847879e-05   0.44466062            0            0   0.44466062    1.4617931    1.9064537    3.7340765 
 2890000   0.93603504 -7.6548932e-06   0.59777348 1.4595079e-05            0   0.59775888    1.3689512    1.9667247    1.1828637 
 2895000   0.98519694 -5.152184e-05   0.53426284  0.054050081            0   0.48021275    1.4408505    1.9751134    -3.300723 
 2900000   0.90396461 -9.6345729e-06   0.59915782  0.061972821            0     0.537185    1.3220482    1.9212061   0.93462581 
 2905000     1.066232 1.379956e-06   0.40297043  0.012612779            0   0.39035765    1.5593644    1.9623348    2.1036423 
 2910000     1.073455 2.8541631e-05      0.45224  0.010794181            0   0.44144582    1.5699279    2.0221679    4.9448309 
 2915000    1.1005885 -3.7134394e-06   0.44801322 0.0012829939            0   0.44673023    1.6096106    2.0576239    1.6773677 
 2920000    1.0556514 -3.8268562e-05   0.51322318  0.022272309            0   0.49095087    1.5438902    2.0571134   -1.8615874 
 2925000    1.0224564 4.2002025e-05   0.56118472  0.031534222            0   0.52965049    1.4953425    2.0565273    6.3575346 
 2930000    1.0788226 4.6995532e-05   0.49626816 0.0028848489            0   0.49338331    1.5777781    2.0740462    6.8863887 
 2935000    1.0703716 -1.4386842e-05   0.49336562 2.4863511e-06            0   0.49336313    1.5654185    2.0587842   0.58557151 
 2940000    1.1019703 -2.9191438e-05    0.4463143  0.015293619            0   0.43102068    1.6116316    2.0579459  -0.93125739 
 2945000    1.0050577 2.4426577e-05   0.56031904  0.094851053            0   0.46546798    1.4698968    2.0302159    4.5314974 
 2950000    1.0595709 -1.3268998e-05   0.53420623  0.066024213            0   0.46818201    1.5496225    2.0838287   0.72508334 
 2955000     1.020047 -9.9185637e-06   0.55387747  0.027873064            0    0.5260044    1.4918188    2.0456963    1.0300353 
 2960000    1.1113541 -3.7627461e-05   0.45758478  0.041978018            0   0.41560677    1.6253553    2.0829401   -1.7701119 
 2965000   0.96296705 -3.4267832e-06   0.65934017   0.01500847            0    0.6443317    1.4083393    2.0676795    1.7167769 
 2970000    1.0569805 8.3589003e-05   0.51624979  0.029365937            0   0.48688385    1.5458339    2.0620837    10.621598 
 2975000    1.0226698 2.3729019e-05   0.57953132  0.099351523            0    0.4801798    1.4956545    2.0751858    4.5050374 
 2980000    1.0920077 -3.8290913e-05   0.48230728  0.040782108            0   0.44152517    1.5970613    2.0793685   -1.8416209 
 2985000    1.0856186 -7.6541246e-05   0.49808912 0.0080440143            0   0.49004511    1.5877172    2.0858063   -5.7520173 
 2990000    1.1013561 2.9990985e-05   0.52992379   0.02434392            0   0.50557987    1.6107333    2.1406571     5.211734 
 2995000    1.0708834 7.9853131e-05   0.58646237  0.038248987            0   0.54821339     1.566167    2.1526294     10.32959 
[...]
19285000   0.97414184 0.00013196551   0.43200899 0.00083084407            0   0.43117815    1.4246824    1.8566914     15.36996 
19290000   0.97404486 2.3257083e-05   0.43511157 3.5162255e-05            0    0.4350764    1.4245406    1.8596522    4.2411775 
19295000   0.98606242 -4.4115271e-05   0.43856152            0            0   0.43856152    1.4421163    1.8806778    -2.636726 
19300000    1.0731479 -4.1300803e-05   0.38173277 0.0028177128            0   0.37891505    1.5694787    1.9512115   -2.2779907 
19305000   0.99854599 -6.4809737e-05   0.47284908 0.0098285769            0    0.4630205    1.4603735    1.9332226   -4.7032945 
19310000   0.97710598 2.9933794e-05   0.46717513 0.0090637721            0   0.45811136    1.4290175    1.8961926    4.9614132 
19315000    1.0720149 0.00011160267   0.36178898 0.0056867784            0    0.3561022    1.5678218    1.9296108    13.357724 
19320000    1.0367144 6.1251437e-05   0.46454784  0.001414346            0   0.46313349    1.5161949    1.9807427    8.2528898 
19325000    1.0780344 3.415558e-05   0.41800057            0            0   0.41800057    1.5766253    1.9946259    5.4921573 
19330000    1.1411744 1.1703155e-07   0.31755513 9.8384084e-05            0   0.31745674    1.6689676    1.9865227    1.9985068 
19335000   0.96247013 -5.3610573e-05   0.62704105 0.00063848085            0   0.62640257    1.4076126    2.0346536   -3.4550691 
19340000    1.1402899 -8.7029596e-07   0.39059327 0.0028742836            0   0.38771899     1.667674    2.0582673     1.969149 
19345000    1.1867183 1.3674857e-06   0.34092482 0.0043779759            0   0.33654684    1.7355756    2.0765004    2.2165309 
19350000    1.1345876 2.5305106e-05     0.405928  0.010773015            0   0.39515499    1.6593343    2.0652623    4.6565051 
19355000     1.038161 8.3878043e-05   0.51970731   0.01921696            0   0.50049035    1.5183105    2.0380178    10.627129 
19360000    1.0922418 -4.0776506e-05   0.44448167  0.020937587            0   0.42354408    1.5974036    2.0418853   -2.1336289 
19365000    1.1247919 -6.0375231e-05   0.41845354   0.02924792            0   0.38920562    1.6450081    2.0634617    -4.118962 
19370000    1.0359873 -9.5545467e-05   0.52014777  0.035114087            0   0.48503369    1.5151314    2.0352791   -7.7485767 
19375000    0.9681533 -6.2357968e-05   0.56180501  0.024141887            0   0.53766313    1.4159242    1.9777292   -4.4077267 
19380000    1.0420361 0.00010450356   0.43101556  0.059939259            0    0.3710763    1.5239778    1.9549934    12.656158 
19385000    1.0284443 1.9051995e-05    0.4087436   0.02637655            0   0.38236705    1.5040998    1.9128435    3.8637678 
19390000    1.0240348 -0.0001153215   0.41864291 8.2785469e-05            0   0.41856013    1.4976509    1.9162938   -9.8926277 
19395000    1.0020199 3.8668325e-06   0.45614279            0            0   0.45614279    1.4654541    1.9215969    2.3175606 
19400000    1.0839299 5.4008618e-06   0.33113505            0            0   0.33113505    1.5852474    1.9163825    2.4694307 
19405000   0.92087636 -8.291254e-05   0.55117175 5.9904292e-05            0   0.55111184    1.3467817    1.8979534   -6.5922907 
19410000   0.96361783 3.8672782e-05   0.52212778 0.00037622927            0   0.52175155    1.4092911    1.9314189    5.8915117 
19415000    1.0852755 -1.7539019e-05   0.36099236 0.00036006006            0    0.3606323    1.5872154    1.9482078   0.15221226 
19420000    1.0729369 -6.340387e-05   0.37971592 0.0045770977            0   0.37513882    1.5691703    1.9488862     -4.54367 
19425000    1.1160563 6.7821699e-05   0.34056581 0.0020366612            0   0.33852915    1.6322323    1.9727981      8.91774 
19430000    1.0464367 2.9493731e-05   0.44222299 0.0042566507            0   0.43796634    1.5304136    1.9726366    4.9927947 
19435000   0.96798383 2.0011072e-05   0.56989319  0.015505417            0   0.55438777    1.4156764    1.9855695    4.0347033 
19440000    1.0935164 -1.5419236e-06   0.38022135 0.0070229727            0   0.37319837    1.5992677    1.9794891    1.8215961 
19445000     1.074994 4.3866182e-05   0.44795198 0.00026354107            0   0.44768844    1.5721787    2.0201307    6.5120277 
19450000   0.99930678 9.3642739e-05   0.55459064            0            0   0.55459064    1.4614862    2.0160768    11.605093 
19455000    1.1028373 1.634955e-05   0.40751977            0            0   0.40751977    1.6128995    2.0204193    3.6946133 
19460000    1.1741346 -1.3120081e-05   0.32951858 0.00012513631            0   0.32939344    1.7171718    2.0466904   0.70319412 
19465000    1.0864476 -1.8379335e-05   0.48050822  0.004188647            0   0.47631958    1.5889296    2.0694378   0.18739389 
19470000    1.1558284 -3.0617992e-05   0.38158706  0.012524914            0   0.36906215     1.690399    2.0719861   -1.0632963 
19475000    1.1047361 1.7866009e-05   0.50289801 0.0051544155            0    0.4977436    1.6156765    2.1185745    3.9480538 
19480000      1.15475 -1.6104835e-05    0.4299503 0.0067715763            0   0.42317873    1.6888219    2.1187722   0.46963712 
19485000    1.1518511 -8.9676671e-05    0.4666009  0.017382205            0    0.4492187    1.6845822    2.1511831    -7.031708 
19490000    1.1293212 -4.3608541e-05   0.50471815 0.0046656598            0   0.50005249    1.6516322    2.1563504   -2.3091643 
19495000    1.1495448 3.7171012e-05   0.40560335 0.00018153278            0   0.40542181    1.6812093    2.0868127    5.8931243 
19500000    1.0601516 1.0696275e-05    0.5374014  0.010953667            0   0.52644773    1.5504718    2.0878732    3.1831717 
19505000    1.2298847 -5.5489624e-05   0.34024504  0.036111121            0   0.30413392    1.7987063    2.1389514   -3.5431861 
19510000    1.0752973 -6.503303e-05   0.52997691   0.02414335            0   0.50583356    1.5726223    2.1025992   -4.5567831 
19515000    1.1909052 2.8876897e-05   0.38877474 0.0083938225            0   0.38038092    1.7416989    2.1304736    5.0874678 
19520000    1.1421831  0.000121691   0.51412549  0.013242488            0     0.500883    1.6704428    2.1845683    14.645727 
19525000    1.1480907 5.7676342e-05   0.48903549  0.056559536            0   0.43247595    1.6790827    2.1681182    8.0741756 
19530000    1.1088609 -7.8408536e-05   0.53590048    0.0871245            0   0.44877598     1.621709    2.1576095   -5.8714245 
19535000    1.1903566 -3.6654963e-06   0.43767493 0.0096828063            0   0.42799213    1.7408966    2.1785715    1.8032247 
19540000    1.1458529 0.00014785981   0.50252505 0.0071026623            0   0.49542239    1.6758099    2.1783349     17.31918 
19545000    1.2220758 6.6162987e-05    0.4021096  0.020861071            0   0.38124853    1.7872859    2.1893955    8.9644853 
19550000    1.2185986 -2.3742615e-05   0.44490384  0.014076876            0   0.43082696    1.7822005    2.2271044  -0.20413944 
19555000    1.2287595 -2.1138884e-05   0.45622193  0.019616441            0   0.43660549    1.7970608    2.2532827  0.088661003 
19560000     1.231398 2.7873155e-05   0.43080979 0.0066260142            0   0.42418377    1.8009195    2.2317293    5.0859403 
19565000    1.2185325 -6.3356125e-05   0.43868348 0.0055523976            0   0.43313108    1.7821037    2.2207872     -4.26688 
19570000    1.2425017 -2.8024902e-05    0.3863177  0.046238375            0   0.34007933    1.8171587    2.2034764  -0.66627348 
19575000    1.2043115 6.7953557e-05   0.46985975  0.083129041            0   0.38673071    1.7613056    2.2311654    9.1896096 
19580000     1.164156 -1.3827831e-05   0.51047262   0.12244888            0   0.38802374    1.7025781    2.2130507   0.79708082 
19585000    1.1828711 9.1778033e-06   0.52825864  0.039271892            0   0.48898675    1.7299489    2.2582076    3.1980146 
19590000    1.0304994 -4.063939e-05   0.73262605   0.10221151            0   0.63041454    1.5071054    2.2397314   -1.9217421 
19595000     1.169074 5.4787087e-05    0.5353026  0.011276903            0    0.5240257    1.7097707    2.2450733     7.855271 
19600000    1.2225408 0.00012928635   0.44551367 0.00046778123            0   0.44504589    1.7879659    2.2334796    15.472402 
19605000    1.2062826 3.4761807e-05   0.41406097  0.015360746            0   0.39870023    1.7641883    2.1782493    5.7378584 
19610000     1.144987 -5.2828783e-05   0.52311402  0.033072038            0   0.49004198    1.6745435    2.1976575   -3.2120099 
19615000     1.063499 -3.526887e-05   0.63619905 0.0023971537            0    0.6338019    1.5553673    2.1915664   -1.4199659 
19620000    1.1444081 -2.8643223e-06   0.55985162 0.0011528877            0   0.55869874    1.6736968    2.2335485    1.9402418 
19625000    1.2369747 -4.8215752e-05   0.38812665  0.001672203            0   0.38645445    1.8090754    2.1972021   -2.7400909 
19630000    1.1805874 -3.9090475e-05   0.51185836 2.4159939e-05            0    0.5118342     1.726609    2.2384674   -1.7643973 
19635000    1.2218335 1.365931e-05    0.4381345 0.0037728522            0   0.43436165    1.7869315     2.225066    3.6237794 
19640000    1.2510342 2.1484617e-05   0.43169148  0.011929116            0   0.41976236    1.8296375    2.2613289    4.4613537 
19645000    1.2679839 2.6368273e-05   0.36629173   0.02961879            0   0.33667294    1.8544264    2.2207182    4.9208293 
19650000    1.0556452 7.1780083e-05   0.68815753   0.13875193            0    0.5494056    1.5438812    2.2320387    9.5823192 
19655000    1.1769811 2.4109825e-05   0.50021114  0.054701295            0   0.44550984    1.7213349     2.221546    4.6903921 
19660000    1.1534118 -4.109479e-05   0.47301859  0.022306554            0   0.45071204    1.6868648    2.1598834   -2.0482231 
19665000    1.2023785 -3.6106977e-05   0.44558106  0.094652926            0   0.35092813    1.7584785    2.2040596   -1.4932949 
19670000    1.1267072 3.459337e-05   0.50859138   0.07024963            0   0.43834175    1.6478093    2.1564007    5.6987617 
19675000    1.1222175 -2.5885715e-05   0.54739449  0.026837152            0   0.52055734     1.641243    2.1886375   -0.4620597 
19680000    1.1744353 6.7116574e-06   0.45072645  0.010184832            0   0.44054161    1.7176116    2.1683381    2.8556118 
19685000    1.0739485 -3.0702308e-05   0.59287058 0.0048294949            0   0.58804109    1.5706497    2.1635202  -0.98039608 
19690000    1.1758498 -7.2601597e-06   0.44237961 0.0020689514            0   0.44031066    1.7196803    2.1620599    1.4186196 
19695000    1.1730717 -6.3388152e-05   0.45074093 0.00024466588            0   0.45049627    1.7156174    2.1663583   -4.3245884 
19700000    1.1686849 -4.137705e-06   0.45957731 5.3338331e-05            0   0.45952397    1.7092016    2.1687789    1.7450779 
19705000    1.0975746 -3.9566329e-06   0.58583401            0            0   0.58583401    1.6052028    2.1910368    1.7858776 
19710000    1.1966235 3.901164e-05   0.36208827 0.0064906721            0    0.3555976    1.7500618    2.1121501     6.106942 
19715000    1.1146157 2.6641042e-05   0.53530702  0.063147874            0   0.47215915    1.6301254    2.1654324    4.8934751 
19720000    1.0751429 -7.3587488e-05   0.57867999  0.037290009            0   0.54138999    1.5723965    2.1510765   -5.3842823 
19725000     1.176895 -4.0022297e-05   0.45184995  0.033583358            0   0.41826659     1.721209    2.1730589   -1.9252242 
19730000    1.1162012 1.3249073e-05   0.50324868  0.081090701            0   0.42215798    1.6324442    2.1356929     3.492398 
19735000    1.1254725 -1.4491852e-05   0.49370727  0.034520583            0   0.45918668    1.6460036    2.1397108   0.65574517 
19740000   0.99276159 -1.9201045e-05   0.69197021   0.11069948            0   0.58127074    1.4519138     2.143884   0.17769705 
19745000    1.1545461 -7.0755393e-05   0.46161853  0.014339804            0   0.44727873    1.6885237    2.1501422     -5.09521 
19750000     1.182712 -2.039069e-05    0.4203926 0.0029251984            0    0.4174674    1.7297163    2.1501089  0.062102236 
19755000    1.0855258 7.0320776e-05    0.5678836  0.014514937            0   0.55336867    1.5875814     2.155465    9.3563125 
19760000    1.1718417 4.6446989e-05    0.4483878   0.01042558            0   0.43796223    1.7138185    2.1622063     6.918378 
19765000    1.1582903 -6.1686918e-05   0.48794899 0.0090778779            0   0.47887111    1.6939995    2.1819485   -4.1347919 
19770000     1.027564 -5.3750855e-05   0.67357775  0.037815327            0   0.63576242    1.5028123    2.1763901   -3.3276975 
19775000    1.0753526 3.9026742e-05   0.59719997  0.084237529            0   0.51296244    1.5727032    2.1699032    6.1662416 
19780000    1.1140081 8.3494184e-05   0.55556144  0.036696768            0   0.51886467    1.6292369    2.1847983    10.734603 
19785000    1.0682263 8.9413372e-05   0.61300931  0.012050697            0   0.60095861     1.562281    2.1752903     11.33122 
19790000    1.1309387 6.0240319e-05   0.47617596 0.0036653023            0   0.47251066    1.6539978    2.1301738    8.2987824 
19795000    1.0812744 8.2852662e-05   0.56366296 0.0032206169            0   0.56044234    1.5813638    2.1450267    10.629139 
19800000    1.1019908 8.7018831e-05   0.51785298 0.0081958576            0   0.50965712    1.6116616    2.1295146    11.040243 
19805000    1.0321981 1.9604153e-05   0.60756973  0.019121191            0   0.58844854    1.5095897    2.1171594    4.1246247 
19810000    1.1369949 4.7544355e-05   0.48193204  0.028638981            0   0.45329306     1.662855    2.1447871     7.013329 
19815000    1.0633464 -7.9159831e-06    0.5936274  0.083284539            0   0.51034286    1.5551442    2.1487716    1.3381749 
19820000    1.0385591 -9.0558542e-05   0.70891444  0.046144571            0   0.66276987    1.5188926    2.2278071   -7.0453877 
19825000    1.1516689 -7.2352898e-05   0.45155467   0.02610944            0   0.42544523    1.6843158    2.1358705   -5.2730663 
19830000    1.0933654 -3.1663497e-05   0.48123119 0.0003774595            0   0.48085373    1.5990469    2.0802781    -1.162064 
19835000    1.1493568 1.8144343e-05     0.389358 0.0012857661            0   0.38807223    1.6809343    2.0702923     3.928273 
19840000   0.99110933 4.9388169e-05   0.60636932 0.0025877179            0    0.6037816    1.4494974    2.0558667    7.1132152 
19845000    1.0995605 6.6888681e-05    0.4819223 0.0058849619            0   0.47603734    1.6081072    2.0900295    8.9394304 
19850000    1.0727227 6.0232071e-06   0.51158908 0.0082273913            0   0.50336169    1.5688569     2.080446    2.6972224 
19855000    1.0422322 -6.7765042e-05   0.55442691 0.0033926886            0   0.55103422    1.5242646    2.0786915   -4.8604489 
19860000     1.124022 -9.1609171e-05   0.43020873 1.390526e-05            0   0.43019482    1.6438821    2.0740909   -7.3066882 
19865000    1.0721731 -8.310904e-05   0.51439028            0            0   0.51439028    1.5680531    2.0824434   -6.4279223 
19870000    1.0286353 -5.7907226e-05   0.56547662  0.020346731            0   0.54512989    1.5043792    2.0698558   -3.8598441 
19875000    1.0149587 -6.4619778e-05   0.63647843  0.070615838            0   0.56586259    1.4843771    2.1208556   -4.4962097 
19880000    1.1496558 -7.7868391e-06   0.38589679 0.00085650418            0   0.38504029    1.6813716    2.0672684    1.2698961 
19885000     1.034142 0.00014077585   0.54480432            0            0   0.54480432    1.5124327     2.057237    16.472684 
19890000   0.99266293 0.00011959057   0.58198632            0            0   0.58198632    1.4517695    2.0337559     14.27983 
19895000    1.0687944 2.2975061e-05   0.55648134            0            0   0.55648134    1.5631119    2.1195932    4.4722394 
19900000    1.1891457 -4.8126912e-05   0.42574617            0            0   0.42574617    1.7391255    2.1648717   -2.7633241 
19905000    1.1137505 -3.9290013e-05   0.56164302   0.00354952            0    0.5580935    1.6288601    2.1905031   -1.8327942 
19910000    1.1590908 5.147118e-05   0.50984457  0.013013518            0   0.49683105    1.6951703    2.2050149    7.4756637 
19915000    1.0318393 9.8632602e-05   0.66989769  0.021104629            0   0.64879306     1.509065    2.1789627    12.278941 
19920000    1.1138085 -3.0024168e-05   0.59018332   0.01450823            0   0.57567509    1.6289449    2.2191283  -0.85534654 
19925000     1.083913 -0.00010648257   0.63531802 0.0040395477            0   0.63127848    1.5852228    2.2205409    -8.683274 
19930000     1.217511 -2.0736759e-05   0.43584816  0.047920546            0   0.38792762    1.7806099     2.216458  0.093013864 
19935000     1.076759 6.3997377e-05   0.64926345  0.027446311            0   0.62181714      1.57476    2.2240234    8.7773548 
19940000   0.94749741 7.6116994e-05   0.77783805  0.015035361            0   0.76280268     1.385715     2.163553    9.9579332 
19945000    1.1536782 0.00010033641   0.47446361 0.0042754449            0   0.47018817    1.6872544     2.161718    12.436166 
19950000    1.1268204 9.5378303e-05   0.48519577 6.2729167e-06            0   0.48518949    1.6479749    2.1331707    11.899909 
19955000    1.0895999 -2.1031521e-05    0.5388172 0.00069706203            0   0.53812013    1.5935398     2.132357 -0.021270725 
19960000    1.1297337 -2.5337538e-05   0.43528884 0.00066786189            0   0.43462098    1.6522356    2.0875244  -0.50703945 
19965000    1.0155975 3.9413097e-05    0.5495982 0.0022447387            0   0.54735346    1.4853114    2.0349096    6.0708107 
19970000   0.96651164 1.3851227e-05    0.6533635  0.010537972            0   0.64282553    1.4135233    2.0668868    3.4852525 
19975000    1.0417403 2.7172661e-05    0.5008699  0.013864696            0   0.48700521    1.5235452    2.0244151    4.8068956 
19980000    1.0488671 8.1415262e-06   0.52498573 0.0067044758            0   0.51828126    1.5339681    2.0589538    2.8926461 
19985000    1.0679724 9.4358979e-07   0.51231834  0.001472854            0   0.51084549    1.5619096     2.074228    2.1708515 
19990000      1.06625 4.7619597e-07   0.49715502 0.00031054035            0   0.49684448    1.5593906    2.0565456    2.1053081 
19995000    0.9890247 -2.4784369e-05   0.61408837 0.0013793138            0   0.61270906    1.4464486     2.060537   -0.4773824 
20000000   0.98490274 -4.4320404e-06   0.61058483 0.0053981229            0    0.6051867    1.4404203    2.0510051    1.5971642 
Loop time of 129.798 on 1 procs for 20000000 steps with 40 atoms

Performance: 133130.080 tau/day, 154085.740 timesteps/s
99.3% CPU use with 1 MPI tasks x no OpenMP threads

MPI task timing breakdown:
Section |  min time  |  avg time  |  max time  |%varavg| %total
---------------------------------------------------------------
Pair    | 5.1373     | 5.1373     | 5.1373     |   0.0 |  3.96
Bond    | 12.854     | 12.854     | 12.854     |   0.0 |  9.90
Neigh   | 18.574     | 18.574     | 18.574     |   0.0 | 14.31
Comm    | 46.783     | 46.783     | 46.783     |   0.0 | 36.04
Output  | 0.33399    | 0.33399    | 0.33399    |   0.0 |  0.26
Modify  | 40.998     | 40.998     | 40.998     |   0.0 | 31.59
Other   |            | 5.118      |            |       |  3.94

Nlocal:        40.0000 ave          40 max          40 min
Histogram: 1 0 0 0 0 0 0 0 0 0
Nghost:        0.00000 ave           0 max           0 min
Histogram: 1 0 0 0 0 0 0 0 0 0
Neighs:        14.0000 ave          14 max          14 min
Histogram: 1 0 0 0 0 0 0 0 0 0

Total # of neighbors = 14
Ave neighs/atom = 0.35
Ave special neighs/atom = 5.7000000
Neighbor list builds = 3602
Dangerous builds = 0
write_restart restart.equil
System init for write_restart ...
WARNING: Communication cutoff 1.4200000000000002 is shorter than a bond length based estimate of 1.8. This may lead to errors. (../comm.cpp:667)
#--------------End of Input file ------------------
Total wall time: 0:02:09
