LAMMPS Description

120 atoms
119 bonds
0 angles
0 dihedrals
0 impropers

1 atom types
1 bond types
0 angle types
0 dihedral types
0 improper types

-80 80 xlo xhi
-80 80 ylo yhi
-80 80 zlo zhi

Masses

1 1.0

Atoms

1 1 1 -0 0 0 60 
2 1 1 -0 0 0 59 
3 1 1 -0 0 0 58 
4 1 1 -0 0 0 57 
5 1 1 -0 0 0 56 
6 1 1 -0 0 0 55 
7 1 1 -0 0 0 54 
8 1 1 -0 0 0 53 
9 1 1 -0 0 0 52 
10 1 1 -0 0 0 51 
11 1 1 -0 0 0 50 
12 1 1 -0 0 0 49 
13 1 1 -0 0 0 48 
14 1 1 -0 0 0 47 
15 1 1 -0 0 0 46 
16 1 1 -0 0 0 45 
17 1 1 -0 0 0 44 
18 1 1 -0 0 0 43 
19 1 1 -0 0 0 42 
20 1 1 -0 0 0 41 
21 1 1 -0 0 0 40 
22 1 1 -0 0 0 39 
23 1 1 -0 0 0 38 
24 1 1 -0 0 0 37 
25 1 1 -0 0 0 36 
26 1 1 -0 0 0 35 
27 1 1 -0 0 0 34 
28 1 1 -0 0 0 33 
29 1 1 -0 0 0 32 
30 1 1 -0 0 0 31 
31 1 1 -0 0 0 30 
32 1 1 -0 0 0 29 
33 1 1 -0 0 0 28 
34 1 1 -0 0 0 27 
35 1 1 -0 0 0 26 
36 1 1 -0 0 0 25 
37 1 1 -0 0 0 24 
38 1 1 -0 0 0 23 
39 1 1 -0 0 0 22 
40 1 1 -0 0 0 21 
41 1 1 -0 0 0 20 
42 1 1 -0 0 0 19 
43 1 1 -0 0 0 18 
44 1 1 -0 0 0 17 
45 1 1 -0 0 0 16 
46 1 1 -0 0 0 15 
47 1 1 -0 0 0 14 
48 1 1 -0 0 0 13 
49 1 1 -0 0 0 12 
50 1 1 -0 0 0 11 
51 1 1 -0 0 0 10 
52 1 1 -0 0 0 9 
53 1 1 -0 0 0 8 
54 1 1 -0 0 0 7 
55 1 1 -0 0 0 6 
56 1 1 -0 0 0 5 
57 1 1 -0 0 0 4 
58 1 1 -0 0 0 3 
59 1 1 -0 0 0 2 
60 1 1 -0 0 0 1 
61 1 1 -0 0 0 0 
62 1 1 -0 0 0 -1 
63 1 1 -0 0 0 -2 
64 1 1 -0 0 0 -3 
65 1 1 -0 0 0 -4 
66 1 1 -0 0 0 -5 
67 1 1 -0 0 0 -6 
68 1 1 -0 0 0 -7 
69 1 1 -0 0 0 -8 
70 1 1 -0 0 0 -9 
71 1 1 -0 0 0 -10 
72 1 1 -0 0 0 -11 
73 1 1 -0 0 0 -12 
74 1 1 -0 0 0 -13 
75 1 1 -0 0 0 -14 
76 1 1 -0 0 0 -15 
77 1 1 -0 0 0 -16 
78 1 1 -0 0 0 -17 
79 1 1 -0 0 0 -18 
80 1 1 -0 0 0 -19 
81 1 1 -0 0 0 -20 
82 1 1 -0 0 0 -21 
83 1 1 -0 0 0 -22 
84 1 1 -0 0 0 -23 
85 1 1 -0 0 0 -24 
86 1 1 -0 0 0 -25 
87 1 1 -0 0 0 -26 
88 1 1 -0 0 0 -27 
89 1 1 -0 0 0 -28 
90 1 1 -0 0 0 -29 
91 1 1 -0 0 0 -30 
92 1 1 -0 0 0 -31 
93 1 1 -0 0 0 -32 
94 1 1 -0 0 0 -33 
95 1 1 -0 0 0 -34 
96 1 1 -0 0 0 -35 
97 1 1 -0 0 0 -36 
98 1 1 -0 0 0 -37 
99 1 1 -0 0 0 -38 
100 1 1 -0 0 0 -39 
101 1 1 -0 0 0 -40 
102 1 1 -0 0 0 -41 
103 1 1 -0 0 0 -42 
104 1 1 -0 0 0 -43 
105 1 1 -0 0 0 -44 
106 1 1 -0 0 0 -45 
107 1 1 -0 0 0 -46 
108 1 1 -0 0 0 -47 
109 1 1 -0 0 0 -48 
110 1 1 -0 0 0 -49 
111 1 1 -0 0 0 -50 
112 1 1 -0 0 0 -51 
113 1 1 -0 0 0 -52 
114 1 1 -0 0 0 -53 
115 1 1 -0 0 0 -54 
116 1 1 -0 0 0 -55 
117 1 1 -0 0 0 -56 
118 1 1 -0 0 0 -57 
119 1 1 -0 0 0 -58 
120 1 1 -0 0 0 -59 

Bonds

1 1 1 2
2 1 2 3
3 1 3 4
4 1 4 5
5 1 5 6
6 1 6 7
7 1 7 8
8 1 8 9
9 1 9 10
10 1 10 11
11 1 11 12
12 1 12 13
13 1 13 14
14 1 14 15
15 1 15 16
16 1 16 17
17 1 17 18
18 1 18 19
19 1 19 20
20 1 20 21
21 1 21 22
22 1 22 23
23 1 23 24
24 1 24 25
25 1 25 26
26 1 26 27
27 1 27 28
28 1 28 29
29 1 29 30
30 1 30 31
31 1 31 32
32 1 32 33
33 1 33 34
34 1 34 35
35 1 35 36
36 1 36 37
37 1 37 38
38 1 38 39
39 1 39 40
40 1 40 41
41 1 41 42
42 1 42 43
43 1 43 44
44 1 44 45
45 1 45 46
46 1 46 47
47 1 47 48
48 1 48 49
49 1 49 50
50 1 50 51
51 1 51 52
52 1 52 53
53 1 53 54
54 1 54 55
55 1 55 56
56 1 56 57
57 1 57 58
58 1 58 59
59 1 59 60
60 1 60 61
61 1 61 62
62 1 62 63
63 1 63 64
64 1 64 65
65 1 65 66
66 1 66 67
67 1 67 68
68 1 68 69
69 1 69 70
70 1 70 71
71 1 71 72
72 1 72 73
73 1 73 74
74 1 74 75
75 1 75 76
76 1 76 77
77 1 77 78
78 1 78 79
79 1 79 80
80 1 80 81
81 1 81 82
82 1 82 83
83 1 83 84
84 1 84 85
85 1 85 86
86 1 86 87
87 1 87 88
88 1 88 89
89 1 89 90
90 1 90 91
91 1 91 92
92 1 92 93
93 1 93 94
94 1 94 95
95 1 95 96
96 1 96 97
97 1 97 98
98 1 98 99
99 1 99 100
100 1 100 101
101 1 101 102
102 1 102 103
103 1 103 104
104 1 104 105
105 1 105 106
106 1 106 107
107 1 107 108
108 1 108 109
109 1 109 110
110 1 110 111
111 1 111 112
112 1 112 113
113 1 113 114
114 1 114 115
115 1 115 116
116 1 116 117
117 1 117 118
118 1 118 119
119 1 119 120
