LAMMPS (29 Oct 2020)
###################### polyelectrolyte complexation ######################
clear

#Initialization
#------------------------------------
units				lj
dimension			3
atom_style			full
boundary			p p p

#Atom Definition
#-------------------------------------
read_data			data.complexation
Reading data file ...
  orthogonal box = (-80.000000 -80.000000 -80.000000) to (80.000000 80.000000 80.000000)
  1 by 1 by 1 MPI processor grid
  reading atoms ...
  120 atoms
  scanning bonds ...
  1 = max bonds/atom
  reading bonds ...
  119 bonds
Finding 1-2 1-3 1-4 neighbors ...
  special bond factors lj:    0.0      0.0      0.0     
  special bond factors coul:  0.0      0.0      0.0     
     2 = max # of 1-2 neighbors
     2 = max # of 1-3 neighbors
     4 = max # of 1-4 neighbors
     6 = max # of special neighbors
  special bonds CPU = 0.000 seconds
  read_data CPU = 0.003 seconds

#Force definition
#----------------------------------------------
#Bond definition
bond_style			harmonic
bond_coeff			1 5000 1
#Pair definition
special_bonds	lj 0 1 1
Finding 1-2 1-3 1-4 neighbors ...
  special bond factors lj:    0.0      1.0      1.0     
  special bond factors coul:  0.0      0.0      0.0     
     2 = max # of 1-2 neighbors
     2 = max # of 1-3 neighbors
     4 = max # of 1-4 neighbors
     6 = max # of special neighbors
  special bonds CPU = 0.000 seconds
pair_style		 lj/cut 1.12
pair_modify 		 shift yes
pair_coeff	1 1 1 1 1.12

#Timestep etc
#--------------------------------------------
timestep		1e-05
run_style		verlet
velocity		all	create	1	13

#Fix
#---------------------------------------
group polymers type 1
120 atoms in group polymers
fix 1 all nve
fix 2 all langevin 1	1	10	13
fix 3 polymers recenter INIT INIT INIT units box

#Dump
#------------------------------------------------
compute  1 all gyration
variable  myRg2 equal c_1
variable  i equal step
fix  mythermofile all print 5000 "$i ${myRg2}" file radius_of_gyration.dat screen no

thermo_style		 custom step temp press pe evdwl ecoul ebond ke etotal enthalpy
thermo 	5000
dump	3 all custom 5000 dump.lammpstrj id mol type xu yu zu
run		20000000
Neighbor list info ...
  update every 1 steps, delay 10 steps, check yes
  max neighbors/atom: 2000, page size: 100000
  master list distance cutoff = 1.42
  ghost atom cutoff = 1.42
  binsize = 0.71, bins = 226 226 226
  1 neighbor lists, perpetual/occasional/extra = 1 0 0
  (1) pair lj/cut, perpetual
      attributes: half, newton on
      pair build: half/bin/newton
      stencil: half/bin/3d/newton
      bin: standard
WARNING: Communication cutoff 1.4200000000000002 is shorter than a bond length based estimate of 1.8. This may lead to errors. (../comm.cpp:667)
Per MPI rank memory allocation (min/avg/max) = 54.72 | 54.72 | 54.72 Mbytes
Step Temp Press PotEng E_vdwl E_coul E_bond KinEng TotEng Enthalpy 
       0            1 2.9052734e-05            0            0            0            0       1.4875       1.4875    2.4791667 
    5000   0.77307386 -0.00046446307   0.33804094            0            0   0.33804094    1.1499474    1.4879883   -14.365685 
   10000   0.43160454 -0.0010802067   0.85470909            0            0   0.85470909   0.64201176    1.4967208   -35.374334 
   15000   0.70614017 -0.00057904643   0.46322014            0            0   0.46322014    1.0503835    1.5136037   -18.251181 
   20000   0.72538102 -0.00039209492   0.44258084            0            0   0.44258084    1.0790043    1.5215851   -11.861922 
   25000   0.54125055 -0.00086208387    0.7211151            0            0    0.7211151   0.80511019    1.5262253   -27.899571 
   30000   0.63905768 -0.00068203123   0.56709408            0            0   0.56709408    0.9505983    1.5176924   -21.762307 
   35000     0.783362 -0.00027244793   0.32151339            0            0   0.32151339     1.165251    1.4867644   -7.8127916 
   40000   0.63857717 -0.00053310327   0.53106251            0            0   0.53106251   0.94988354    1.4809461   -16.715646 
   45000   0.65368528 -0.00060600451   0.50441734            0            0   0.50441734   0.97235685    1.4767742    -19.20818 
   50000   0.67446198 -0.00043019809   0.47867187            0            0   0.47867187    1.0032622    1.4819341   -13.202161 
   55000   0.64750709 -0.0005015315    0.5469202            0            0    0.5469202   0.96316679     1.510087   -15.608855 
   60000   0.69343331 -0.000315745   0.50634648            0            0   0.50634648     1.031482    1.5378285   -9.2396009 
   65000    0.8062266 -0.00038333517   0.34333694            0            0   0.34333694    1.1992621     1.542599   -11.541908 
   70000   0.78435163 -0.00040665878    0.3919702            0            0    0.3919702    1.1667231    1.5586933   -12.321927 
   75000   0.79046618 -0.00022828146   0.41690123            0            0   0.41690123    1.1758184    1.5927197   -6.1992874 
   80000   0.85176468 -0.00010910425   0.32029087            0            0   0.32029087        1.267    1.5872908   -2.1368009 
   85000   0.81333953 -0.00032749801   0.35434188 0.00037924008            0   0.35396264    1.2098426    1.5641844   -9.6144144 
   90000   0.83160288 -0.00015435037   0.32830239            0            0   0.32830239    1.2370093    1.5653117    -3.703181 
   95000   0.81726527 -0.00014134725   0.35393417            0            0   0.35393417    1.2156821    1.5696163   -3.2550366 
  100000   0.80672584 -0.00022630509   0.36856142            0            0   0.36856142    1.2000047    1.5685661    -6.155981 
  105000   0.83635166 5.552676e-05    0.3185065            0            0    0.3185065    1.2440731    1.5625796     3.457893 
  110000   0.86757411 2.6681625e-06   0.28111837            0            0   0.28111837    1.2905165    1.5716349    1.6627081 
  115000   0.85169238 -0.00022824189   0.31118099            0            0   0.31118099    1.2668924    1.5780734   -6.2125833 
  120000   0.85004076 -7.2972604e-05     0.338949            0            0     0.338949    1.2644356    1.6033846  -0.88741357 
  125000   0.87530582 -1.2455195e-05   0.30086659            0            0   0.30086659    1.3020174     1.602884    1.1777467 
  130000   0.81639007 -0.00011607798   0.38646209            0            0   0.38646209    1.2143802    1.6008423   -2.3612861 
  135000    0.8472654 -0.00012979522   0.34356415            0            0   0.34356415    1.2603073    1.6038714   -2.8264721 
  140000   0.84073134 -4.7376833e-05   0.38607737            0            0   0.38607737    1.2505879    1.6366652  0.019536005 
  145000   0.88889189 3.815596e-05   0.32934143            0            0   0.32934143    1.3222267    1.6515681    2.9539582 
  150000   0.86247965 -6.7055846e-05   0.35765625            0            0   0.35765625    1.2829385    1.6405947   -0.6482448 
  155000    0.9027745 2.550185e-05   0.31346609            0            0   0.31346609    1.3428771    1.6563432    2.5268063 
  160000   0.88343745 -3.0985417e-05   0.33422034            0            0   0.33422034    1.3141132    1.6483335   0.59069799 
  165000   0.89889374 1.9417562e-05   0.33622394            0            0   0.33622394    1.3371044    1.6733284    2.3361145 
  170000   0.87951376 -7.981634e-05   0.36991542            0            0   0.36991542    1.3082767    1.6781921   -1.0462056 
  175000   0.90761631 -2.9343577e-05   0.35470655  0.002285076            0   0.35242148    1.3500793    1.7047858   0.70319171 
  180000   0.88188857 -5.7478606e-05   0.37203804 0.0084859108            0   0.36355213    1.3118093    1.6838473  -0.27808914 
  185000   0.86062719 -1.5404447e-05   0.41711897 0.0031470227            0   0.41397195    1.2801829    1.6973019    1.1714968 
  190000   0.89928381 -1.0097854e-05    0.3468894            0            0    0.3468894    1.3376847    1.6845741    1.3399007 
  195000   0.88433578 -3.7388684e-05   0.36951286            0            0   0.36951286    1.3154495    1.6849623   0.40876193 
  200000   0.85918833 -6.1751045e-05   0.41434166            0            0   0.41434166    1.2780426    1.6923843  -0.41538471 
  205000   0.89833388 8.7618632e-05   0.34457178            0            0   0.34457178    1.3362716    1.6808434    4.6715594 
  210000   0.92789642 -6.088562e-05   0.32137098            0            0   0.32137098    1.3802459    1.7016169  -0.37661226 
  215000   0.85613868 -7.785613e-05   0.41077357            0            0   0.41077357    1.2735063    1.6842799  -0.97320937 
  220000   0.85656773 -2.2862705e-05   0.42319888            0            0   0.42319888    1.2741445    1.6973434   0.91696304 
  225000   0.90264719 7.0566684e-05    0.3708194            0            0    0.3708194    1.3426877    1.7135071    4.1221833 
  230000   0.85200706 1.4232918e-06   0.44324044 3.6514482e-05            0   0.44320393    1.2673605    1.7106009    1.7591826 
  235000   0.87089488 -0.00013071486    0.4273703 0.00067197953            0   0.42669832    1.2954561    1.7228264   -2.7389076 
  240000   0.92891277 0.00019657108   0.34373276 0.0013679027            0   0.34236486    1.3817577    1.7254905    8.4351166 
  245000   0.87959771 -6.836485e-05   0.40187503 0.00023836235            0   0.40163667    1.3084016    1.7102766   -0.6232436 
  250000   0.84164451 -0.00011622801   0.46984742            0            0   0.46984742    1.2519462    1.7217936   -2.2454559 
  255000   0.91814811 0.0001379363   0.34560044            0            0   0.34560044    1.3657453    1.7113458    6.4195713 
  260000   0.85797768 -9.6434574e-05   0.45089509            0            0   0.45089509    1.2762418    1.7271369   -1.5644966 
  265000   0.84541162 2.4212388e-05   0.47890658            0            0   0.47890658    1.2575498    1.7364564    2.5629059 
  270000   0.88710839 -6.1099031e-05   0.42351353            0            0   0.42351353    1.3195737    1.7430873  -0.34242631 
  275000   0.87623874 1.6436462e-05   0.44235855            0            0   0.44235855    1.3034051    1.7457637    2.3067949 
  280000   0.90666929 1.8953326e-05   0.42076888            0            0   0.42076888    1.3486706    1.7694395    2.4163797 
  285000   0.89507749 -2.0315822e-05   0.45732236            0            0   0.45732236    1.3314278    1.7887501    1.0953034 
  290000   0.90526595 -8.8073226e-05   0.44826178            0            0   0.44826178    1.3465831    1.7948449   -1.2113879 
  295000   0.94140524 0.00022606306   0.42585175            0            0   0.42585175    1.4003403     1.826192    9.5424778 
  300000   0.92162097 -0.00014445643   0.45917705 0.0025378735            0   0.45663917    1.3709112    1.8300882   -3.1006912 
  305000    0.9536681 -5.3313567e-05   0.40437327  0.007098991            0   0.39727428    1.4185813    1.8229546 0.0031848213 
  310000   0.98908225 0.00028403547   0.34938323 0.0022406748            0   0.34714256    1.4712598    1.8206431     11.51572 
  315000   0.95494008 -0.00030403642   0.40013049 1.2164376e-05            0   0.40011832    1.4204734    1.8206039   -8.5571726 
  320000     0.925247 0.00011561784   0.43007357            0            0   0.43007357    1.3763049    1.8063785    5.7528008 
  325000   0.93796501 -3.3063226e-05   0.43280723            0            0   0.43280723     1.395223    1.8280302   0.69947206 
  330000   0.88882243 -0.00010821584   0.49694578            0            0   0.49694578    1.3221234    1.8190692   -1.8746983 
  335000   0.90335444 -3.2806886e-05   0.47032379 5.0004033e-05            0   0.47027379    1.3437397    1.8140635   0.69425514 
  340000   0.94991345 7.8264366e-05   0.39439486 0.00021251639            0   0.39418235    1.4129963    1.8073911    4.4788148 
  345000    0.9413663 -0.00022633816   0.39186947 0.0027583469            0   0.38911113    1.4002824    1.7921518    -5.933524 
  350000   0.91285243 0.00020261933   0.41677166 0.0019920238            0   0.41477963     1.357868    1.7746396    8.6907129 
  355000    0.8849315 -0.00022933872   0.47617518 0.00062016328            0   0.47555502    1.3163356    1.7925108   -6.0355843 
  360000   0.93408542 8.6708725e-05   0.41734712 0.00011364479            0   0.41723347    1.3894521    1.8067992     4.766457 
  365000    0.9126758 -0.00012654785   0.43417328 0.00042810339            0   0.43374518    1.3576053    1.7917785   -2.5277214 
  370000   0.89357253 7.296764e-05    0.4818196  0.004156984            0   0.47766262    1.3291891    1.8110087    4.3016375 
  375000   0.89541628 3.1584856e-05   0.48615747 0.0068311639            0   0.47932631    1.3319317    1.8180892    2.8961856 
  380000   0.89729276 2.1561456e-05   0.48199759 0.0022480086            0   0.47974958     1.334723    1.8167206    2.5526849 
  385000   0.91206781 -1.8685402e-05   0.47611686 0.00088140249            0   0.47523546    1.3567009    1.8328177    1.1950227 
  390000   0.90478528 0.00013475929   0.48727008 0.0011222427            0   0.48614784    1.3458681    1.8331382    6.4329219 
  395000   0.89576374 -0.00023293664   0.48748738 0.00083761304            0   0.48664977    1.3324486    1.8199359   -6.1309682 
  400000   0.90041583 0.00025195965    0.4838989 3.4594922e-05            0   0.48386431    1.3393685    1.8232674     10.42349 
  405000   0.92060232 -0.00020869718   0.46605087 1.4392973e-05            0   0.46603648    1.3693959    1.8354468   -5.2880836 
  410000    0.9267554 5.5795088e-05    0.4439175 7.1177019e-05            0   0.44384632    1.3785487    1.8224662    3.7269385 
  415000   0.89594649 3.6424883e-05   0.48811074 0.00030434434            0   0.48780639    1.3327204    1.8208311    3.0641338 
  420000   0.88646685 -0.00020709667   0.52099509 0.00026332082            0   0.52073176    1.3186194    1.8396145   -5.2292852 
  425000   0.91054221 0.00018266198   0.48783164 1.034958e-05            0   0.48782129    1.3544315    1.8422632    8.0771254 
  430000   0.90893236 -7.1724972e-05   0.48453366            0            0   0.48453366    1.3520369    1.8365705  -0.61164182 
  435000   0.84047908 7.7897292e-05   0.57614914            0            0   0.57614914    1.2502126    1.8263618     4.485256 
  440000   0.85877312 -8.8648411e-05   0.55721274            0            0   0.55721274     1.277425    1.8346378    -1.191228 
  445000     0.922184 6.9974249e-05   0.49732731            0            0   0.49732731    1.3717487     1.869076    4.2575304 
  450000   0.92399687 -6.1768597e-05    0.4817583            0            0    0.4817583    1.3744453    1.8562036  -0.25216447 
  455000   0.91128119 9.0425076e-05   0.50609676            0            0   0.50609676    1.3555308    1.8616275    4.9481368 
  460000   0.93165188 -4.6774872e-06   0.47592014            0            0   0.47592014    1.3858322    1.8617523    1.7020941 
  465000   0.97221011 4.6668391e-05   0.43752675            0            0   0.43752675    1.4461625    1.8836893     3.476637 
  470000   0.98659325 2.3534397e-05   0.41771132            0            0   0.41771132    1.4675575    1.8852688    2.6885762 
  475000   0.99322442 2.9580517e-05   0.40374105            0            0   0.40374105    1.4774213    1.8811624     2.890844 
  480000   0.97061665 -1.0836217e-05   0.43316559 0.0026788235            0   0.43048677    1.4437923    1.8769579    1.5070816 
  485000   0.92380808 -0.00011965838   0.48319176 0.0014684427            0   0.48172332    1.3741645    1.8573563   -2.2269829 
  490000   0.94254556 0.00013345368   0.43755685 0.0076057719            0   0.42995108    1.4020365    1.8395934    6.3948124 
  495000   0.90245411 -0.00010148864   0.50070851 0.0065634657            0   0.49414504    1.3424005     1.843109   -1.6210366 
  500000    0.9340776 0.00018178651   0.46610163 0.0008319954            0   0.46526963    1.3894404     1.855542    8.0605214 
  505000   0.94911636 -2.8139254e-05   0.44177901            0            0   0.44177901    1.4118106    1.8535896   0.89310305 
  510000   0.95413843 -0.00012890785   0.44224042 0.00098992463            0   0.44125049    1.4192809    1.8615213   -2.5385331 
  515000   0.89688571 0.00021355108   0.49620063  0.006756778            0   0.48944385    1.3341175    1.8303181    9.1195282 
  520000   0.90974914 -0.00026226338   0.51305765 0.0099809574            0   0.50307669    1.3532519    1.8663095   -7.0856138 
  525000    0.9885019 8.3384088e-05   0.37560866 0.0024624325            0   0.37314623    1.4703966    1.8460052    4.6921821 
  530000   0.93826011  0.000143914   0.44882876 0.00045554354            0   0.44837321    1.3956619    1.8444907    6.7567551 
  535000   0.89268371 -0.00022553127   0.49745722 5.7847036e-05            0   0.49739938     1.327867    1.8253242   -5.8728098 
  540000   0.93231576 0.00012891044   0.44938204            0            0   0.44938204    1.3868197    1.8362017    6.2363446 
  545000   0.94394622 7.8589069e-05   0.44503388            0            0   0.44503388      1.40412    1.8491539    4.5316608 
  550000   0.91529521 -0.00014499479   0.50498825 0.00010274495            0    0.5048855    1.3615016    1.8664899   -3.0826656 
  555000   0.92317292 1.8272221e-05   0.47172555 0.0021748527            0   0.46955069    1.3732197    1.8449453    2.4686371 
  560000   0.93762874 2.098404e-06   0.45568622 0.0078810001            0   0.44780522    1.3947227     1.850409    1.9220345 
  565000   0.88319693 -0.0002199394   0.50721644 0.0060358485            0   0.50118059    1.3137554    1.8209719   -5.6862931 
  570000   0.89772466 0.00015585465   0.48557116 0.0016566003            0   0.48391456    1.3353654    1.8209366    7.1407754 
  575000   0.83997994 5.7457209e-05   0.58114155 4.2592185e-05            0   0.58109896    1.2494702    1.8306117    3.7918178 
  580000   0.89832007 -0.00016477057   0.49824188            0            0   0.49824188    1.3362511     1.834493   -3.7896757 
  585000   0.91125985 0.00020118136   0.48744561            0            0   0.48744561     1.355499    1.8429446     8.709935 
  590000   0.85287378 -0.00021954317   0.59064948 0.0004329437            0   0.59021654    1.2686497    1.8592992   -5.6344408 
  595000   0.91292681 9.7673079e-05   0.50848388 0.0020095056            0   0.50647437    1.3579786    1.8664625    5.2003703 
  600000   0.97512524 -5.98632e-05   0.41209227 0.00099628136            0   0.41109599    1.4504988    1.8625911  -0.18073951 
  605000   0.95316311 1.9471715e-06   0.44291702 0.0002561216            0    0.4426609    1.4178301    1.8607471    1.9272106 
  610000   0.90724735 0.00011763386   0.50541642  0.011782348            0   0.49363407    1.3495304    1.8549469    5.8701826 
  615000   0.91364779 -6.0945792e-05   0.48947851  0.023310118            0   0.46616839    1.3590511    1.8485296  -0.23175342 
  620000   0.91412686 -6.5495327e-05   0.49005381 0.0020253178            0    0.4880285    1.3597637    1.8498175   -0.3857563 
  625000    0.9036747 -4.9594788e-05   0.51587492            0            0   0.51587492    1.3442161     1.860091   0.16725562 
  630000    0.9494019 0.00012954876   0.46702006            0            0   0.46702006    1.4122353    1.8792554    6.3011865 
  635000    0.9303813 -0.00021642629   0.50308521 0.00030013253            0   0.50278508    1.3839422    1.8870274   -5.5003233 
  640000   0.95555832 0.0002383368    0.4691661 0.0032194744            0   0.46594662     1.421393    1.8905591    10.025789 
  645000    0.9375471 -0.00020209344   0.48708748 0.0036383702            0   0.48344911    1.3946013    1.8816888   -5.0164339 
  650000   0.97978757 9.8503205e-05   0.40826785 0.0015631413            0   0.40670471     1.457434    1.8657019    5.2279446 
  655000    0.8754207 2.2240291e-05   0.55096922 0.0012881431            0   0.54968108    1.3021883    1.8531575    2.6122928 
  660000   0.87235221 -0.00015606202   0.57141101 0.0013923018            0   0.57001871    1.2976239    1.8690349   -3.4578821 
  665000   0.92308546 0.00017160445   0.48997906 0.0016409556            0    0.4883381    1.3730896    1.8630687    7.7205005 
  670000   0.91619071 3.9654096e-05   0.48619327 0.00012415886            0   0.48606911    1.3628337     1.849027    3.2025534 
  675000   0.97233159 5.9304781e-05   0.42031796            0            0   0.42031796    1.4463432    1.8666612     3.890931 
  680000   0.90592015 -0.00015508269    0.5169332            0            0    0.5169332    1.3475562    1.8644894   -3.4289998 
  685000   0.88869229 0.00019649085   0.55618551 0.00078003693            0   0.55540547    1.3219298    1.8781153    8.5850031 
  690000    0.9175775 -0.0001619653   0.50500591 0.0061905307            0   0.49881538    1.3648965    1.8699025    -3.658513 
  695000   0.88394205 -2.4365316e-05   0.53903803 0.0067645245            0   0.53227351    1.3148638    1.8539018    1.0222324 
  700000   0.90144434 0.00011411085   0.51670653 0.00083146689            0   0.51587506    1.3408985     1.857605    5.7525886 
  705000   0.93501059 -0.00018816401   0.47193512 0.00016886842            0   0.47176625    1.3908282    1.8627634   -4.5599016 
  710000   0.89477634 -7.3890414e-05   0.55370643            0            0   0.55370643    1.3309798    1.8846862  -0.63743989 
  715000   0.89157141 0.00018729006   0.58365407 0.00017259873            0   0.58348147    1.3262125    1.9098665    8.3027005 
  720000   0.93006016 -5.6542413e-05   0.53393645 0.00062238692            0   0.53331407    1.3834645    1.9174009  -0.01258009 
  725000   0.98437376 -3.1800086e-05   0.43538327 0.00099834529            0   0.43438492     1.464256    1.8996392    0.8141963 
  730000   0.88634465 0.00017316736   0.57227241 0.00099191064            0    0.5712805    1.3184377    1.8907101    7.8014893 
  735000   0.93141348 -0.00010451639   0.48947132 0.00071563067            0   0.48875569    1.3854775    1.8749489    -1.692544 
  740000   0.94468929 8.2706972e-05   0.45648315 0.00051835731            0   0.45596479    1.4052253    1.8617085    4.6847731 
  745000   0.91689865 -4.7403506e-05   0.48010917 0.00090626657            0   0.47920291    1.3638867    1.8439959   0.22595625 
  750000   0.94541955 -0.00011556539   0.44856732 0.0019492465            0   0.44661807    1.4063116    1.8548789   -2.0897532 
  755000   0.91133305 -3.3631115e-05   0.50278155  0.001024966            0   0.50175659    1.3556079    1.8583895    0.7104474 
  760000   0.90182931 0.00019077052   0.53322479 0.00042898575            0    0.5327958    1.3414711    1.8746959    8.3863297 
  765000   0.92778373 8.8535265e-05   0.52366976 1.056803e-05            0   0.52365919    1.3800783    1.9037481    4.9257518 
  770000    0.9693361 -0.0001545757   0.43655465            0            0   0.43655465    1.4418874    1.8784421   -3.3977418 
  775000   0.90579795 6.1107068e-05   0.55327661            0            0   0.55327661    1.3473744    1.9006511     3.986439 
  780000   0.89499158 -0.00024270933   0.54981499 7.9925165e-05            0   0.54973506       1.3313     1.881115   -6.4033636 
  785000   0.89475133 1.1448626e-05   0.52772602 0.0005976056            0   0.52712841    1.3309426    1.8586686    2.2494484 
  790000   0.87146256 0.00012813971   0.56525034  0.001751657            0   0.56349869    1.2963006    1.8615509    6.2353864 
  795000   0.87429851 -7.0601217e-05     0.569946 0.0051597849            0   0.56478621     1.300519     1.870465  -0.53938985 
  800000   0.89267147 5.626266e-05    0.5481339 0.0054151041            0    0.5427188    1.3278488    1.8759827    3.7964148 
  805000   0.88969883 0.00013678626   0.54691395 0.0026579342            0   0.54425602     1.323427     1.870341    6.5393121 
  810000   0.85674339 -2.8804687e-05   0.59091299 0.00045853475            0   0.59045446    1.2744058    1.8653188    0.8821188 
  815000   0.92846889 3.9555201e-06   0.52220251 0.00014188249            0   0.52206063    1.3810975       1.9033    2.0383151 
  820000   0.96219939 9.7403915e-05   0.47374533 0.0001206474            0   0.47362468    1.4312716    1.9050169    5.2297372 
  825000   0.98256537 -4.2641123e-05   0.48529315 0.0026953711            0   0.48259778     1.461566    1.9468591   0.49137547 
  830000   0.95443669 7.016032e-05   0.53597786 0.0080889655            0    0.5278889    1.4197246    1.9557024     4.350508 
  835000   0.91213554 -0.00017576641   0.57808828  0.009496637            0   0.56859164    1.3568016    1.9348899   -4.0646036 
  840000   0.86622727 4.8558869e-05   0.61216727 0.0054897597            0   0.60667751    1.2885131    1.9006803    3.5581564 
  845000   0.93764011 -6.1981086e-05   0.49735051 0.0011665729            0   0.49618394    1.3947397    1.8920902  -0.22353088 
  850000   0.87704852 0.0001748558   0.57327107 0.00073204001            0   0.57253903    1.3046097    1.8778807     7.846292 
  855000   0.93501564 1.6648631e-05   0.48575453 0.0027820595            0   0.48297247    1.3908358    1.8765903    2.4448636 
  860000   0.85226807 4.6988271e-05   0.60768926  0.009864155            0   0.59782511    1.2677487     1.875438    3.4793043 
  865000   0.85648106 -9.2915639e-05   0.61857188 0.0015713562            0   0.61700053    1.2740156    1.8925875    -1.278933 
  870000   0.92031455 9.6089571e-05   0.53319511 0.0001254009            0   0.53306971    1.3689679     1.902163    5.1820204 
  875000   0.90329407 -0.00028315677   0.57625869 0.00020379247            0    0.5760549    1.3436499    1.9199086   -7.7451758 
  880000   0.90660356 0.00015191824   0.57321423 6.7601954e-05            0   0.57314663    1.3485728     1.921787    7.1072629 
  885000   0.98163828 6.7420165e-05   0.46965326 0.00043585996            0    0.4692174    1.4601869    1.9298402    4.2311152 
  890000   0.99660954 -8.6140365e-05   0.44568791 0.0087344044            0   0.43695351    1.4824567    1.9281446   -1.0121132 
  895000   0.93913175 5.9544403e-05   0.54411195 0.0079282304            0   0.53618372    1.3969585    1.9410704    3.9735194 
  900000   0.95980871 -6.4232352e-05   0.53580598 0.00046472493            0   0.53534126    1.4277155    1.9635214  -0.22894284 
  905000   0.98073312 8.3675331e-05   0.54337458 0.00034648454            0    0.5430281    1.4588405    2.0022151    4.8583331 
  910000   0.97458649 2.9426346e-05   0.55869142 0.0040472488            0   0.55464417    1.4496974    2.0083888    3.0128081 
  915000    1.0036937 5.1548158e-05   0.53027279  0.010727799            0   0.51954499    1.4929943    2.0232671    3.7827776 
  920000   0.99645067 -0.00012777816   0.54745095 0.0013111353            0   0.54613981    1.4822204    2.0296713   -2.3318233 
  925000    1.0096667 -6.6890454e-06   0.54269806            0            0   0.54269806    1.5018792    2.0445773    1.8162578 
  930000    0.9613025 0.00010538931   0.62538306 0.00013114815            0   0.62525192    1.4299375    2.0553205    5.6526089 
  935000   0.96809782 4.5071795e-05   0.60145457 0.0019329349            0   0.59952163    1.4400455    2.0415001    3.5799507 
  940000    1.0563072 -6.9003102e-05    0.4812735 0.0038434929            0   0.47743001    1.5712569    2.0525304  -0.30277543 
  945000    1.0481675 -0.00011138472   0.44430293  0.026811772            0   0.41749115    1.5591492    2.0034521   -1.7984797 
  950000   0.95372576 0.00016654553   0.57654801   0.01052132            0   0.56602669    1.4186671    1.9952151    7.6799691 
  955000   0.99395642 -4.1895734e-05   0.52398271  0.015501006            0   0.50848171    1.4785102    2.0024929   0.57245185 
  960000   0.94360433 0.00016434079   0.59363462 0.0038284772            0   0.58980614    1.4036114    1.9972461     7.606745 
  965000    0.9687132 -4.9042576e-05   0.55640353 0.0024873706            0   0.55391616    1.4409609    1.9973644    0.3233778 
  970000   0.96830168 0.00013271362   0.57449277 0.0022770137            0   0.57221576    1.4403487    2.0148415    6.5447997 
  975000    0.9467561 -3.5932401e-05   0.62147669 0.0041125172            0   0.61736418    1.4082997    2.0297764   0.80328379 
  980000    0.9723452 3.4550878e-05   0.58148796 0.0014559744            0   0.58003199    1.4463635    2.0278514    3.2071881 
  985000   0.95159507 -0.0001115462   0.61304988 0.00023723072            0   0.61281265    1.4154977    2.0285475    -1.778896 
  990000   0.98967508 2.3294457e-05   0.56343628 0.0011328888            0    0.5623034    1.4721417     2.035578    2.8306954 
  995000    1.0687242 -8.3380854e-05   0.46025809 0.0079638843            0    0.4522942    1.5897273    2.0499854  -0.79608109 
 1000000    1.0173989 -1.9771551e-06   0.53605795 0.0060199448            0     0.530038    1.5133808    2.0494387    1.9819519 
 1005000    1.0181352 -1.8832406e-05   0.53489125 0.0070342748            0   0.52785698    1.5144762    2.0493674    1.4065546 
 1010000     1.005061 -0.00016155154   0.55784205 0.0030523057            0   0.55478974    1.4950283    2.0528703   -3.4614223 
 1015000    1.0874661 0.00023515556   0.45677407 2.2354164e-05            0   0.45675171    1.6176058    2.0743799    10.101023 
 1020000    1.0675747 -3.8538414e-05   0.48889442            0            0   0.48889442    1.5880173    2.0769117    0.7614672 
 1025000   0.99675243 1.6250843e-05   0.56931621 3.8210188e-05            0     0.569278    1.4826692    2.0519855    2.6066809 
 1030000   0.99142302 -9.9460261e-05   0.57918684 0.00017429982            0   0.57901254    1.4747417    2.0539286   -1.3409817 
 1035000   0.93148741 0.00011297539   0.65495151 0.00045275957            0   0.65449875    1.3855875     2.040539    5.8967657 
 1040000   0.95764735 2.2358843e-06   0.60079539 0.00041849549            0   0.60037689    1.4245004    2.0252958     2.101614 
 1045000    1.0309192 0.00010925934   0.46231915 0.0001713428            0   0.46214781    1.5334923    1.9958115     5.725197 
 1050000   0.96725102 -8.5604871e-05   0.54504345 0.0031838163            0   0.54185963    1.4387859    1.9838293  -0.93815025 
 1055000    1.0145297 -5.2322448e-05   0.47277074  0.011888097            0   0.46088264    1.5091129    1.9818836    0.1959441 
 1060000   0.91734231 -0.0001240098   0.59039681 0.0056439249            0   0.58475289    1.3645467    1.9549435   -2.2779245 
 1065000   0.93273675 -7.2464894e-05   0.54895742   0.01528884            0   0.53366858    1.3874459    1.9364033  -0.53706506 
 1070000   0.90297671 0.00025056947   0.58439715 0.0061903705            0   0.57820677    1.3431779     1.927575    10.480346 
 1075000   0.93721626 -0.00018318681   0.52621424  0.009373574            0   0.51684067    1.3941092    1.9203234   -4.3324529 
 1080000    0.9210672 0.00019012029   0.54081124  0.014516663            0   0.52629458    1.3700875    1.9108987    8.4003378 
 1085000   0.93423811 -9.2266547e-05   0.49878278 0.0040533841            0    0.4947294    1.3896792     1.888462   -1.2609028 
 1090000   0.91510339 0.0001879476   0.53212769 0.0007616026            0   0.53136608    1.3612163     1.893344     8.308622 
 1095000   0.94457435 -0.00019016294   0.48768817 0.0011667422            0   0.48652143    1.4050544    1.8927425   -4.5981526 
 1100000   0.93835462 0.00010831201   0.52321183  0.002470294            0   0.52074153    1.3958025    1.9190143    5.6160643 
 1105000    1.0511365 -7.0835939e-05   0.35259876 0.0091648756            0   0.34343389    1.5635656    1.9161644  -0.50170235 
 1110000   0.94234918 -0.00012292423   0.49808316 0.0050363617            0    0.4930468    1.4017444    1.8998276    -2.295986 
 1115000   0.86985055 0.00017729428   0.60621295 0.00088837243            0   0.60532458    1.2939027    1.9001156    7.9517604 
 1120000   0.91326717 -0.00012576142   0.53398843 0.0026096181            0   0.53137882    1.3584849    1.8924734    -2.400183 
 1125000   0.85834549 5.9601572e-05   0.58432871 0.0047167761            0   0.57961193    1.2767889    1.8611176     3.895518 
 1130000   0.94138117 -0.00014039918   0.48242223 0.0025769287            0    0.4798453    1.4003045    1.8827267   -2.9095653 
 1135000    0.9287657 -6.5747286e-05    0.5044656 0.00056573927            0   0.50389986     1.381539    1.8860046  -0.35816946 
 1140000   0.96465667 6.0755497e-05   0.44793575 9.6846238e-07            0   0.44793478    1.4349268    1.8828625    3.9566502 
 1145000   0.95802064 -2.2226946e-05   0.47998651 0.0012781214            0   0.47870839    1.4250557    1.9050422    1.1463625 
 1150000   0.96587914 -3.8382391e-05   0.47388623 0.0043353679            0   0.46955087    1.4367452    1.9106315    0.6005125 
 1155000   0.87769994 1.055907e-06   0.61074457 0.0050127054            0   0.60573186    1.3055787    1.9163232    1.9523649 
 1160000   0.90583841 4.6717848e-05   0.55056463 0.0031416295            0     0.547423    1.3474346    1.8979993    3.4926351 
 1165000   0.88808595 0.00021387807   0.55868699  0.009400704            0   0.54928629    1.3210279    1.8797148    9.1800862 
 1170000    0.8940056 9.2117318e-05   0.56526754   0.01798265            0   0.54728489    1.3298333    1.8951009     5.039372 
 1175000   0.88604478 -0.00011277018   0.58291573 0.0039312581            0   0.57898448    1.3179916    1.9009073   -1.9483149 
 1180000   0.88984524 0.00013525689   0.56991581 0.0023880657            0   0.56752774    1.3236448    1.8935606    6.5103292 
 1185000   0.87643583 -5.1007667e-05   0.56955477 0.0078067866            0   0.56174798    1.3036983    1.8732531   0.13219136 
 1190000    0.8754403 0.00010079246   0.57576844  0.010962608            0   0.56480583    1.3022174    1.8779859    5.3183686 
 1195000   0.87507089 -0.00017567862   0.57943721 0.0077860617            0   0.57165115    1.3016679    1.8811052   -4.1153919 
 1200000   0.89329309 3.3632624e-05   0.54543801 0.0053808116            0    0.5400572    1.3287735    1.8742115    3.0222051 
 1205000   0.90795932 1.5960893e-05   0.51746882 0.0046668406            0   0.51280198    1.3505895    1.8680583    2.4128568 
 1210000   0.92840153 6.2063739e-05   0.47956377  0.002231792            0   0.47733198    1.3809973    1.8605611    3.9790033 
 1215000   0.85050332 0.00016904528   0.58929024 0.0058825679            0   0.58340767    1.2651237    1.8544139    7.6244927 
 1220000   0.90840971 -6.3614977e-05   0.50968572 0.0029421021            0   0.50674362    1.3512594    1.8609452  -0.31044605 
 1225000   0.89955133 0.00010355789   0.51179729 0.00088288655            0    0.5109144    1.3380826    1.8498799    5.3846559 
 1230000   0.92981947 -0.00015197119   0.48922561 0.0014655316            0   0.48776008    1.3831065    1.8723321   -3.3149513 
 1235000    1.0009393 0.0001068982   0.37992587 0.0014872655            0    0.3784386    1.4888971     1.868823    5.5176148 
 1240000   0.90366167 4.2440205e-05   0.51464299 0.0011456137            0   0.51349738    1.3441967    1.8588397    3.3074654 
 1245000   0.85559863 -0.00018557016   0.59848589 0.0026876828            0   0.59579821     1.272703    1.8711888   -4.4629393 
 1250000   0.90695658 0.00018263813   0.52134828 0.0023104098            0   0.51903787    1.3490979    1.8704462    8.1044942 
 1255000     0.928354 -0.00018092605   0.49833981 0.0010385792            0   0.49730123    1.3809266    1.8792664   -4.2963427 
 1260000   0.93815694 0.00011588018    0.4991219 0.0072182956            0   0.49190361    1.3955085    1.8946304    5.8500073 
 1265000   0.90705062 0.0001510423   0.52060816 0.0056854885            0   0.51492267    1.3492378     1.869846     7.025423 
 1270000   0.91975155 -0.00017151543   0.47449982  0.013313897            0   0.46118592    1.3681304    1.8426303   -4.0117631 
 1275000   0.85088417 8.1114132e-05   0.57363154   0.01250495            0   0.56112659    1.2656902    1.8393217    4.6080174 
 1280000   0.91658858 -9.6857766e-05   0.49434804 0.0015272094            0   0.49282084    1.3634255    1.8577736   -1.4483048 
 1285000   0.88884718 8.075684e-05   0.55071905 0.00040876212            0   0.55031029    1.3221602    1.8728792    4.6293794 
 1290000    0.9257394 8.2603286e-05   0.51002594 0.00037566021            0   0.50965028    1.3770374    1.8870633    4.7065888 
 1295000   0.91485826 -0.00025407808   0.54740613 0.00098840644            0   0.54641772    1.3608517    1.9082578   -6.7642739 
 1300000   0.92480619 -1.0295657e-05   0.54276014 0.0026215866            0   0.54013856    1.3756492    1.9184094    1.5669843 
 1305000   0.96878062 -3.1513914e-05   0.46125336 0.0014896437            0   0.45976371    1.4410612    1.9023145   0.82663961 
 1310000   0.93634565 -4.817557e-05     0.504782 0.0058798742            0   0.49890213    1.3928142    1.8975962   0.25320337 
 1315000   0.92954336 -7.832722e-06   0.52475203 0.0083613685            0   0.51639066    1.3826958    1.9074478    1.6400909 
 1320000   0.89167289 -6.86978e-05   0.57231984 0.0021476607            0   0.57017218    1.3263634    1.8986833  -0.44620164 
 1325000   0.96064761 -2.7851447e-05   0.46319741 0.00073006285            0   0.46246734    1.4289633    1.8921607     0.941498 
 1330000   0.85702914 2.4200955e-05   0.65375028 0.00039044312            0   0.65335983    1.2748308    1.9285811    2.7546404 
 1335000   0.92892821 4.2298721e-05   0.54912736  0.003616212            0   0.54551114    1.3817807    1.9309081    3.3747044 
 1340000   0.88291922 -0.00016758998   0.62036172  0.013975756            0   0.60638596    1.3133423    1.9337041   -3.7867006 
 1345000   0.94571704 -7.0577466e-06    0.5303779 0.0063818174            0   0.52399608    1.4067541     1.937132    1.6962276 
 1350000   0.91205794 -6.4098148e-05   0.60698228 0.0013771179            0   0.60560516    1.3566862    1.9636685  -0.22421498 
 1355000   0.89579105 -8.7040396e-06   0.64788015            0            0   0.64788015    1.3324892    1.9803693    1.6832714 
 1360000   0.96186065 0.0002760376   0.56551341 1.515063e-05            0   0.56549826    1.4307677    1.9962811    11.418365 
 1365000   0.93924143 -0.00011112354   0.61699664 0.0021967753            0   0.61479986    1.3971216    2.0141183   -1.7788986 
 1370000   0.94501628 6.5948849e-05   0.62486608  0.008206557            0   0.61665952    1.4057117    2.0305778    4.2816318 
 1375000    1.0283038 0.00016298719   0.50391594 0.0040046828            0   0.49991125    1.5296019    2.0335178     7.596814 
 1380000   0.93206475 8.6887986e-06   0.63886199 0.0055278892            0    0.6333341    1.3864463    2.0253083     2.321886 
 1385000   0.97835143 -1.1868637e-05   0.57700795  0.032223563            0   0.54478438    1.4552977    2.0323057    1.6271895 
 1390000   0.90990706 -8.5217825e-05   0.68105581  0.020887396            0   0.66016841    1.3534867    2.0345426  -0.87422587 
 1395000   0.96210616 -0.00017336371   0.62610622 0.0074974792            0   0.61860874    1.4311329    2.0572391    -3.860242 
 1400000   0.96427966 8.0377187e-05   0.63523237  0.011133569            0    0.6240988     1.434366    2.0695984    4.8131397 
 1405000    1.0227003 -0.00010367165   0.55674226  0.012537821            0   0.54420444    1.5212668     2.078009   -1.4606501 
 1410000   0.96887686 -8.5333411e-06    0.6592731  0.010543643            0   0.64872946    1.4412043    2.1004774    1.8092061 
 1415000     1.084444 -1.317388e-05   0.52258606 0.0089210911            0   0.51366497    1.6131105    2.1356966    1.6860281 
 1420000    1.0434428 4.5619781e-05   0.57893381 0.0069976115            0    0.5719362    1.5521212     2.131055    3.6882102 
 1425000     1.025939 -0.00010192064   0.61548674 0.0050802846            0   0.61040646    1.5260842     2.141571     -1.33732 
 1430000    1.0094247 3.3856638e-05   0.63235386 0.0062459134            0   0.62610795    1.5015193    2.1338731     3.289513 
 1435000     1.045534 -0.00029178899    0.5731953 0.0030564151            0   0.57013888    1.5552318    2.1284271   -7.8313038 
 1440000    1.0394351 5.2865254e-05   0.57342089 0.00097428752            0    0.5724466    1.5461597    2.1195806    3.9240479 
 1445000     1.017029 1.6072985e-05   0.59503741 0.00032438622            0   0.59471303    1.5128306     2.107868    2.6564926 
 1450000    1.0184334 -7.3786138e-05   0.59554088 0.0033598179            0   0.59218106    1.5149196    2.1104605  -0.40810634 
 1455000   0.99374941 -4.7162051e-05   0.61835801 0.0076456205            0   0.61071239    1.4782022    2.0965602   0.48676223 
 1460000   0.97143616 3.9163895e-05    0.6444336  0.017603235            0   0.62683036    1.4450113    2.0894449    3.4262392 
 1465000   0.99123834 7.7253797e-05   0.61942494  0.011344021            0   0.60808092     1.474467     2.093892    4.7308216 
 1470000    1.0674686  2.63349e-05   0.47393742 0.0090513259            0   0.46488609    1.5878595     2.061797    2.9606949 
 1475000   0.93352767 -2.002076e-05    0.6813215 0.0085953199            0   0.67272618    1.3886224    2.0699439    1.3865686 
 1480000    1.0175635 -0.00021779212   0.58081534  0.020266887            0   0.56054846    1.5136257     2.094441   -5.3395299 
 1485000    0.9732684 5.3654158e-05   0.65309546  0.015370983            0   0.63772448    1.4477367    2.1008322    3.9322275 
 1490000   0.99320235 6.5880119e-05   0.64328642 0.0036937078            0   0.63959271    1.4773885    2.1206749     4.369383 
 1495000   0.98681327 4.8813617e-05   0.66643474 0.0072786148            0   0.65915612    1.4678847    2.1343195     3.800491 
 1500000    1.0195244 -2.7557119e-05   0.59704621  0.024866446            0   0.57217976    1.5165426    2.1135888    1.1729725 
 1505000   0.90535114 -4.1686406e-05   0.74232783 0.0077335682            0   0.73459426    1.3467098    2.0890377   0.66614165 
 1510000    1.0330246  -4.1777e-05   0.54788443 0.0061496481            0   0.54173479    1.5366242    2.0845086   0.65852032 
 1515000    0.9973555 -2.8661424e-05   0.61996215  0.021580438            0   0.59838172    1.4835663    2.1035285    1.1252185 
 1520000    1.0321463 0.00018864356   0.56215283  0.015697292            0   0.54645554    1.5353176    2.0974704    8.5365039 
 1525000   0.97150174 2.250919e-06   0.64859035 0.0074329589            0   0.64115739    1.4451088    2.0936992    2.1705306 
 1530000    1.0378437 8.2017681e-05   0.54177453 0.0035248992            0   0.53824963    1.5437925     2.085567    4.8851039 
 1535000    1.0102955 -3.2407199e-05   0.57784349 0.0072320797            0   0.57061141    1.5028146    2.0806581   0.97449238 
 1540000    1.0307455 -0.00020646193   0.55648487 0.0041047279            0   0.55238015    1.5332339    2.0897187   -4.9575153 
 1545000   0.93945975 0.00022426336   0.67131629 0.0063682161            0   0.66494807    1.3974464    2.0687627    9.7236188 
 1550000   0.96406965 4.3395071e-05   0.66008955   0.01286695            0    0.6472226    1.4340536    2.0941432    3.5753616 
 1555000   0.97410355 1.9672844e-05   0.65862698  0.022968984            0   0.63565799     1.448979     2.107606    2.7791058 
 1560000   0.94377758 -0.00020132265   0.66968886  0.019193266            0   0.65049559    1.4038692     2.073558    -4.798255 
 1565000   0.97057962 0.00017426229   0.62672581  0.020398848            0   0.60632696    1.4437372     2.070463    8.0186158 
 1570000   0.99306744 -6.4838971e-05   0.57073953    0.0215214            0   0.54921813    1.4771878    2.0479273  -0.16524285 
 1575000   0.94219348 -6.2145748e-05   0.66286318  0.015422606            0   0.64744057    1.4015128     2.064376 -0.056865541 
 1580000   0.99792461 -9.4565484e-05   0.59112483 0.0042596367            0   0.58686519    1.4844129    2.0755377   -1.1522975 
 1585000   0.94712563 -0.00011052058   0.68039628 0.00090850822            0   0.67948777    1.4088494    2.0892457   -1.6831903 
 1590000    1.0290405 -3.4241478e-05   0.53993291 0.0016548675            0   0.53827804    1.5306978    2.0706307   0.90185488 
 1595000   0.93586714 0.0001453539   0.70444599 0.0017156417            0   0.70273035    1.3921024    2.0965484    7.0579615 
 1600000   0.89562623 -7.2585769e-05   0.75468153 0.0030694566            0   0.75161207     1.332244    2.0869255  -0.39066869 
 1605000    1.0075946 3.9680163e-05   0.59454876  0.015927511            0   0.57862125     1.498797    2.0933458     3.447762 
 1610000    1.0075653  -0.00010448   0.58138629  0.014825092            0    0.5665612    1.4987534    2.0801397   -1.4861111 
 1615000    1.0199719 -0.0001052438    0.5755099  0.013317555            0   0.56219234    1.5172082    2.0927181   -1.4996036 
 1620000   0.99855499 -6.2169099e-05   0.59481558  0.021493686            0    0.5733219    1.4853506    2.0801661 -0.041872429 
 1625000   0.97323312 0.00030029379   0.64327424 0.0071863156            0   0.63608793    1.4476843    2.0909585    12.340986 
 1630000   0.97932711 7.7304611e-05   0.65164477 0.0029256711            0    0.6487191    1.4567491    2.1083938    4.7470579 
 1635000   0.93200783 -5.2193507e-05   0.70823741 0.0045438269            0   0.70369359    1.3863617    2.0945991   0.31306068 
 1640000    1.0299964 -3.1411337e-05   0.57313703 0.0045423134            0   0.56859472    1.5321196    2.1052566     1.033083 
 1645000   0.99996831 9.3001333e-05   0.61774011 0.0061437014            0   0.61159641    1.4874529     2.105193    5.2796385 
 1650000    1.0061178 7.7762688e-05   0.60762262  0.019050465            0   0.58857216    1.4966003    2.1042229    4.7585227 
 1655000   0.96645434 -3.989785e-05   0.64773102  0.039012798            0   0.60871823    1.4376008    2.0853319   0.72348525 
 1660000   0.96757264 -6.8404109e-05   0.65976358  0.026489362            0   0.63327422    1.4392643    2.0990279  -0.23583235 
 1665000   0.98938581 0.00018107012   0.60092376  0.014279332            0   0.58664443    1.4717114    2.0726352     8.253162 
 1670000   0.93643206 -8.4276229e-05   0.64616998 0.0030944334            0   0.64307555    1.3929427    2.0391127  -0.83751595 
 1675000   0.99420092 0.00014796684   0.58598357 4.6284528e-05            0   0.58593728    1.4788739    2.0648574    7.1154589 
 1680000   0.91348618 -2.5813309e-05   0.71878008            0            0   0.71878008    1.3588107    2.0775908    1.1964965 
 1685000    1.0550584 -9.4586508e-05   0.51089037            0            0   0.51089037    1.5693994    2.0802898    -1.148263 
 1690000    1.0067405 -0.00012483829   0.57748817 0.0073680401            0   0.57012013    1.4975265    2.0750146   -2.1861324 
 1695000   0.92594381 7.1069779e-05   0.68983112  0.014715914            0   0.67511521    1.3773414    2.0671725     4.493021 
 1700000   0.93489406 -9.4701472e-05   0.64199951 0.0020478834            0   0.63995163    1.3906549    2.0326544   -1.1998225 
 1705000   0.95269718 -5.2874416e-05   0.62362617 0.0036239725            0    0.6200022    1.4171371    2.0407632   0.23598315 
 1710000   0.87312409 -0.00013630688   0.72133181 0.0081662634            0   0.71316554    1.2987721    2.0201039   -2.6325043 
 1715000   0.93868437 -7.6079476e-05   0.61128867  0.019131298            0   0.59215737     1.396293    2.0075817  -0.58926445 
 1720000   0.94914878 5.3013925e-05   0.58620763 0.0067292997            0   0.57947833    1.4118588    1.9980664    3.8076084 
 1725000   0.90574406 4.0088272e-05   0.67295884  0.029816084            0   0.64314276    1.3472943    2.0202531    3.3885995 
 1730000   0.99015121 1.9500467e-05   0.53404452 0.0036817157            0    0.5303628    1.4728499    2.0068944    2.6725104 
 1735000   0.92444146 -6.267902e-05   0.64933459 0.00061977993            0   0.64871481    1.3751067    2.0244413   -0.1150026 
 1740000   0.99359193 -0.00017044063   0.53998423 0.0026233696            0   0.53736086     1.477968    2.0179522   -3.7997546 
 1745000   0.93966194 -0.00013920882   0.61493918  0.005787843            0   0.60915134    1.3977471    2.0126863   -2.7389747 
 1750000   0.90031215 0.00016100761    0.6845013 0.0028627546            0   0.68163855    1.3392143    2.0237156     7.519442 
 1755000   0.90421135 -9.6947423e-05   0.67464021 0.0018467534            0   0.67279345    1.3450144    2.0196546   -1.2894841 
 1760000   0.94939339 -3.0402644e-05   0.61054272 0.0076141353            0   0.60292858    1.4122227    2.0227654   0.98502179 
 1765000   0.94739813 -1.7887673e-05   0.60169702  0.014651161            0   0.58704586    1.4092547    2.0109517    1.4003858 
 1770000   0.94737223 -0.00022432716   0.58646242 0.0064867384            0   0.57997568    1.4092162    1.9956786   -5.6613552 
 1775000   0.88062093 1.7794747e-05    0.7077781  0.016589947            0   0.69118816    1.3099236    2.0177017    2.6250958 
 1780000   0.91484403 -0.00019387178   0.65351856  0.013350318            0   0.64016824    1.3608305    2.0143491   -4.6031409 
 1785000   0.97021847 -7.3034005e-05   0.58061472  0.015693862            0   0.56492085       1.4432    2.0238147  -0.46907937 
 1790000    1.0170603 7.0047999e-05     0.508216  0.022440717            0   0.48577529    1.5128771    2.0210931    4.4120648 
 1795000   0.89693475 9.8279997e-05   0.69732793  0.014502522            0   0.68282541    1.3341904    2.0315184    5.3861423 
 1800000   0.97249395 8.4164816e-05   0.57101257 0.0092339278            0   0.56177864    1.4465847    2.0175973     4.890423 
 1805000   0.96466444 4.4781743e-05   0.58449141   0.03462792            0   0.54986349    1.4349384    2.0194298    3.5479799 
 1810000   0.94646191 -1.8816733e-05   0.60939055 0.0079095422            0   0.60148101    1.4078621    2.0172526    1.3749748 
 1815000   0.97957018 0.00012256261   0.54974806  0.011852867            0   0.53789519    1.4571106    2.0068587     6.190329 
 1820000   0.97925106 -3.9183964e-05   0.57320573  0.016931789            0   0.55627394     1.456636    2.0298417   0.69236236 
 1825000   0.93235315 3.4135537e-06   0.64610537  0.008094813            0   0.63801056    1.3868753    2.0329807    2.1494967 
 1830000   0.89308202 -0.00010850972   0.68957943  0.026537834            0    0.6630416    1.3284595    2.0180389   -1.6857595 
 1835000   0.92828922 -6.1706754e-05   0.62325514  0.006930823            0   0.61632432    1.3808302    2.0040854  -0.10217185 
 1840000   0.98990451 -6.13231e-05   0.53400777 0.00058416807            0   0.53342361     1.472483    2.0064907 -0.086671069 
 1845000   0.92423882 9.9892238e-05   0.62513185  0.020102367            0   0.60502948    1.3748052    1.9999371    5.4095922 
 1850000   0.98101458 4.1344719e-05   0.54929246 0.0072602585            0    0.5420322    1.4592592    2.0085516    3.4197847 
 1855000   0.91368208 -4.3070195e-05   0.64279077  0.033157523            0   0.60963324    1.3591021    2.0018929   0.53176356 
 1860000   0.95142859 6.4148572e-05   0.56634512   0.01824466            0   0.54810046      1.41525    1.9815951    4.1711997 
 1865000    1.0054935 5.5047268e-05   0.49638289  0.010364432            0   0.48601846    1.4956715    1.9920544    3.8710012 
 1870000   0.98307782 8.5487221e-05   0.50048749 0.0076732942            0    0.4928142    1.4623283    1.9628157    4.8807796 
 1875000   0.91041459 -6.3335067e-05   0.59527165  0.021196815            0   0.57407484    1.3542417    1.9495134  -0.21232359 
 1880000   0.96755141 -0.00019102461   0.50728007  0.024907736            0   0.48237234    1.4392327    1.9465128   -4.5737939 
 1885000    1.0228317 2.3948981e-05    0.4262413  0.011423373            0   0.41481792    1.5214622    1.9477035    2.7651621 
 1890000   0.93243423 0.00014792211   0.56624041 0.0048779877            0   0.56136242    1.3869959    1.9532363    7.0023111 
 1895000   0.96960588 7.2845443e-05   0.51448995 0.0070446217            0   0.50744533    1.4422887    1.9567787    4.4432365 
 1900000   0.86652674 -0.0001269034   0.67147921 0.0076390182            0   0.66384019    1.2889585    1.9604377   -2.3711983 
 1905000   0.97801548 -5.2018923e-05   0.52687258 0.0063276659            0   0.52054491     1.454798    1.9816706   0.20609135 
 1910000    1.0089213 6.2395503e-05   0.49784907 0.0040856054            0   0.49376346    1.5007704    1.9986195     4.128386 
 1915000   0.99317728 0.00011740978   0.55403898   0.00415334            0   0.54988564    1.4773512    2.0313902    6.0389774 
 1920000   0.93687966 7.4953097e-05   0.64997352   0.03367585            0   0.61629767    1.3936085     2.043582    4.6019811 
 1925000   0.98602446 -5.1635048e-05   0.56999267  0.042683643            0   0.52730903    1.4667114     2.036704   0.27422776 
 1930000    1.0291681 -8.0803545e-05   0.52151011  0.020913246            0   0.50059687    1.5308875    2.0523977  -0.70569666 
 1935000   0.95644086 4.4368949e-05   0.62440494  0.023866779            0   0.60053816    1.4227058    2.0471107    3.5615708 
 1940000    1.0561553 2.2942881e-05   0.47536205  0.011471728            0   0.46389032     1.571031     2.046393      2.82951 
 1945000    1.0730096 -0.00010939902   0.46304243  0.014679785            0   0.44836265    1.5961018    2.0591442   -1.6750089 
 1950000   0.94528486 2.7917578e-05   0.62864194  0.030201136            0    0.5984408    1.4061112    2.0347532    2.9876732 
 1955000   0.97552077 -5.1220968e-05   0.55551274  0.012448075            0   0.54306466    1.4510871    2.0065999   0.25825751 
 1960000   0.96625809 4.6966052e-05   0.57177237 0.0092838217            0   0.56248854    1.4373089    2.0090813    3.6121892 
 1965000    1.0100714 2.820128e-05   0.52246606 0.0095886404            0   0.51287742    1.5024812    2.0249473     2.987551 
 1970000    1.0383754 0.0001628089   0.48196992 0.0076727718            0   0.47429715    1.5445834    2.0265533    7.5837638 
 1975000    1.0094428 -4.796008e-05   0.53380628  0.016943256            0   0.51686302    1.5015461    2.0353524     0.398315 
 1980000    1.0445654 -9.7412081e-05   0.49254095  0.016578829            0   0.47596212     1.553791    2.0463319   -1.2786671 
 1985000   0.99911981 -2.4595846e-05   0.58650955  0.025400851            0    0.5611087    1.4861907    2.0727003    1.2331621 
 1990000    1.0491838 1.6485585e-05   0.52475353  0.011069511            0   0.51368402    1.5606608    2.0854144    2.6481223 
 1995000    1.0422812 8.2924241e-05   0.53958976  0.006387154            0    0.5332026    1.5503933    2.0899831    4.9204638 
 2000000     1.034953 -1.975392e-05   0.53131637  0.021959881            0   0.50935649    1.5394926    2.0708089    1.3965418 
 2005000   0.95834157 -3.2158686e-05   0.63040925  0.014126196            0   0.61628306    1.4255331    2.0559423   0.95825919 
 2010000     1.031005 -0.00017063262   0.56030391   0.00667643            0   0.55362748      1.53362    2.0939239   -3.7303363 
 2015000    1.1173562 -1.7284632e-05   0.44916449 0.0033542867            0   0.44581021    1.6620673    2.1112318    1.5212497 
 2020000    1.0694262 3.4787733e-05   0.54123798 0.0014748662            0   0.53976311    1.5907715    2.1320095    3.3194308 
 2025000    1.0206428 -8.2725966e-06   0.59355949 0.0026207117            0   0.59093878    1.5182061    2.1117656    1.8293943 
 2030000    1.1110081 8.9405288e-05   0.45597391 0.0063446608            0   0.44962925    1.6526245    2.1085984    5.1602989 
 2035000    1.0782181 6.0941335e-06    0.5077369 0.0064377514            0   0.50129915    1.6038494    2.1115863    2.3195994 
 2040000    1.0444629 8.6080085e-06   0.54506737   0.03286332            0   0.51220405    1.5536385    2.0987059    2.3925259 
 2045000     1.044224 1.6217594e-05   0.55725463  0.022738334            0    0.5345163    1.5532831    2.1105378    2.6640983 
 2050000    1.0813544 0.00010564889   0.51144838  0.022397546            0   0.48905084    1.6085146     2.119963    5.7261118 
 2055000     1.064395 -0.00016132978   0.53928198 0.0059856057            0   0.53329637    1.5832876    2.1225696   -3.3841537 
 2060000    1.0417628 -7.7258569e-05   0.57383464  0.016904439            0    0.5569302    1.5496222    2.1234569  -0.51363563 
 2065000    1.0568284 0.00012312075   0.55520507  0.011055531            0   0.54414954    1.5720322    2.1272373     6.329759 
 2070000    1.0926449 -0.00011630793   0.53463835  0.060469314            0   0.47416903    1.6253093    2.1599476   -1.8100298 
 2075000    1.0125442 -8.0960455e-06    0.6127746  0.019659908            0   0.59311469    1.5061596    2.1189342    1.8425891 
 2080000    1.1218851 0.00010119682   0.45364003 0.0068273358            0    0.4468127    1.6688041    2.1224441    5.5766289 
 2085000    1.0729143 -1.7291154e-05   0.52937586 0.00037453471            0   0.52900133      1.59596    2.1253358    1.5351311 
 2090000    1.0250818 -2.536557e-05   0.59153706 0.00013312443            0   0.59140393    1.5248091    2.1163462    1.2505347 
 2095000    1.0842164 2.9107401e-05   0.52466632            0            0   0.52466632    1.6127718    2.1374382    3.1309708 
 2100000      1.10248 -0.00010289528   0.50676681 0.0024620623            0   0.50430475     1.639939    2.1467058   -1.3654532 
 2105000    1.0872817 -0.00011541982   0.53488876 0.0099098732            0   0.52497889    1.6173316    2.1522203    -1.787443 
 2110000    1.0891597 4.9265013e-05   0.51307074  0.016813402            0   0.49625734     1.620125    2.1331958    3.8147749 
 2115000    1.1024674 6.8369494e-05   0.48526216   0.01607945            0   0.46918271    1.6399203    2.1251824    4.4588612 
 2120000    1.0483559 5.7602105e-06   0.54530516  0.011787759            0    0.5335174    1.5594294    2.1047346    2.3013498 
 2125000    1.0464443 -0.00016029282   0.53448528 0.0089169636            0   0.52556831    1.5565859    2.0910711    -3.380257 
 2130000    1.0963667 -8.5906807e-05   0.45479882 0.0022017975            0   0.45259702    1.6308454    2.0856442  -0.84664146 
 2135000    1.0638959 -5.0055595e-05   0.51623505 0.0086377198            0   0.50759733    1.5825452    2.0987803   0.39021594 
 2140000    1.1048404 8.6242011e-05   0.47870777  0.022060355            0   0.45664741      1.64345    2.1221578    5.0658851 
 2145000    1.0516249 0.00013922129   0.53839762   0.01159308            0   0.52680454    1.5642921    2.1026897    6.8547765 
 2150000    1.1290554 1.0002967e-05   0.42627883  0.013195758            0   0.41308307    1.6794699    2.1057488    2.4471833 
 2155000     1.084458 2.7474836e-05   0.49000127  0.017802682            0   0.47219858    1.6131313    2.1031326    3.0409403 
 2160000    1.0531346 -2.1458807e-05   0.53964287  0.018195301            0   0.52144757    1.5665377    2.1061806    1.3737199 
 2165000    1.1092672 -0.00013784781   0.47424914 0.0056652089            0   0.46858393    1.6500349    2.1242841   -2.5809211 
 2170000     1.172509 0.00016216122   0.39476722 0.00054282951            0   0.39422439    1.7441071    2.1388743    7.6739774 
 2175000     1.150906 9.4667431e-05   0.44128375 0.00027671641            0   0.44100704    1.7119727    2.1532565    5.3845714 
 2180000    1.1099444 -6.1374354e-05   0.52834222  0.035343071            0   0.49299915    1.6510424    2.1793846  0.084473295 
 2185000    1.1065811 0.00013868268   0.50542811  0.020505653            0   0.48492246    1.6460394    2.1514676    6.8851696 
 2190000    1.0660974 5.1433927e-05   0.57048049   0.02135793            0   0.54912256    1.5858198    2.1563003    3.9119117 
 2195000     1.096877 -0.00020836378   0.52827342  0.024145647            0   0.50412777    1.6316045    2.1598779   -4.9522724 
 2200000    1.1027751 -5.5043233e-05   0.55703827 0.0081522127            0   0.54888606     1.640378    2.1974162   0.31860723 
 2205000    1.2139274 2.043884e-06   0.38897756    0.0202295            0   0.36874806     1.805717    2.1946946    2.2644592 
 2210000    1.0816719 4.5800354e-05   0.56946942  0.068865468            0   0.50060395     1.608987    2.1784564    3.7417752 
 2215000      1.10079 0.00017499211    0.5452122  0.025172445            0   0.52003976    1.6374251    2.1826373    8.1557012 
 2220000    1.1322316 -2.2434748e-05   0.46132435  0.013943625            0   0.44738072    1.6841945    2.1455189    1.3797462 
 2225000    1.0635342 -2.7605676e-05   0.56829647  0.025418729            0   0.54287774    1.5820071    2.1503036    1.2080299 
 2230000    1.0756787 6.8586719e-05   0.51936606  0.010970143            0   0.50839592     1.600072    2.1194381    4.4605315 
 2235000    1.0700984  4.13553e-05   0.51299276 0.0036333144            0   0.50935944    1.5917714    2.1047641    3.5163584 
 2240000     1.082253 4.1598644e-05   0.47774787  0.024835199            0   0.45291267    1.6098513    2.0875992    3.5074996 
 2245000    1.0313638 -0.00011806598   0.55790958  0.018538135            0   0.53937145    1.5341536    2.0920632   -1.9379223 
 2250000     1.054605 -7.1409525e-05   0.52212749  0.014448886            0    0.5076786    1.5687249    2.0908524  -0.34659272 
 2255000    1.0472322 5.4999317e-05   0.51247778  0.028725992            0   0.48375179    1.5577579    2.0702357    3.9475457 
 2260000   0.99059255 3.5385165e-05   0.56690032  0.019680235            0   0.54722008    1.4735064    2.0404067    3.2482204 
 2265000    1.0058298 3.4944918e-05   0.53123447  0.018457413            0   0.51277705    1.4961719    2.0274064    3.2201929 
 2270000   0.98588878 -7.9345001e-05   0.56764381   0.04257502            0   0.52506879    1.4665096    2.0341534  -0.67415598 
 2275000    1.0156797 -7.315475e-05   0.49957002  0.016483748            0   0.48308627    1.5108235    2.0103935  -0.48662196 
 2280000    1.0622196 -5.4542769e-05   0.46634041 0.0095846578            0   0.45675575    1.5800517    2.0463921   0.18466562 
 2285000    1.0577638 -2.9243634e-05   0.47294828  0.024800583            0   0.44814769    1.5734237     2.046372    1.0481893 
 2290000    1.0316395 -3.4948612e-05   0.50752656  0.019200481            0   0.48832608    1.5345638    2.0420903   0.84917773 
 2295000    0.9669427 6.9679055e-06    0.6067059  0.015445741            0   0.59126016    1.4383273    2.0450332     2.282871 
 2300000    1.0559785 8.7268494e-05   0.47815515  0.011218343            0   0.46693681    1.5707679    2.0489231    5.0276877 
 2305000    1.0204472 0.00014332923   0.52549205  0.019813072            0   0.50567898    1.5179152    2.0434072    6.9357116 
 2310000    1.0236986 -2.3072798e-05   0.52278534  0.021165744            0    0.5016196    1.5227517    2.0455371    1.2579856 
 2315000     1.005701 2.3649582e-06   0.55043083   0.01816488            0   0.53226595    1.4959803    2.0464111     2.127135 
 2320000    1.0436454 -3.4497705e-05    0.4910847  0.016121263            0   0.47496344    1.5524226    2.0435073   0.86598563 
 2325000    1.0410974 -5.9866885e-05   0.49536304  0.030628535            0   0.46473451    1.5486324    2.0439954 0.00053907453 
 2330000   0.99738006 4.1289687e-05    0.5750204  0.051825549            0   0.52319485    1.4836028    2.0586232    3.4679779 
 2335000   0.98380513 5.8339116e-06   0.60232321  0.042975756            0   0.55934745    1.4634101    2.0657333    2.2648642 
 2340000    1.0104485 -0.00012609801   0.54645503  0.024782999            0   0.52167203    1.5030421    2.0494971   -2.2546482 
 2345000    1.0415071 -0.00023336287   0.50576299  0.021915451            0   0.48384754    1.5492418    2.0550048   -5.9104479 
 2350000    1.0459159 -0.0001177667   0.52563591  0.012021654            0   0.51361425    1.5557999    2.0814359   -1.9383343 
 2355000    1.0717493 6.4273739e-05   0.50959467 0.0072268359            0   0.50236784    1.5942271    2.1038218    4.2976987 
 2360000    1.0840663 1.2044526e-05   0.48973784  0.019817144            0   0.46992069    1.6125486    2.1022864    2.5134062 
 2365000    1.0399609 -7.5278031e-05   0.54377991 0.0025643429            0   0.54121557    1.5469418    2.0907217   -0.4787684 
 2370000    1.1084762 -7.7513027e-05   0.43381256  0.016019098            0   0.41779346    1.6488584    2.0826709  -0.56310706 
 2375000    1.0275027 0.00014395276   0.56939169   0.03304982            0   0.53634187    1.5284103    2.0978019    7.0113896 
 2380000    1.1161152 9.8449745e-05   0.45616297  0.037272027            0   0.41889094    1.6602213    2.1163843    5.4768023 
 2385000    1.0426396 -6.5634934e-05   0.58453594  0.026485096            0   0.55805085    1.5509263    2.1354623   -0.1048768 
 2390000    1.0976155 0.00013363031   0.50968317  0.050207641            0   0.45947553    1.6327031    2.1423863    6.7036341 
 2395000    1.1275661 7.379121e-05   0.47562968  0.010970595            0   0.46465908    1.6772546    2.1528842    4.6716242 
 2400000    1.0746197 -0.00012709662   0.54866758  0.010859853            0   0.53780773    1.5984968    2.1471644   -2.1910668 
 2405000    1.0983496 -3.3182945e-05   0.51714424 0.0079881308            0   0.50915611     1.633795    2.1509392    1.0182947 
 2410000    1.1177243 4.1935267e-05   0.47812314  0.018004677            0   0.46011846    1.6626149     2.140738    3.5721285 
 2415000    1.0522441 -6.2905185e-05   0.57379648  0.029264614            0   0.54453187    1.5652132    2.1390096 -0.0081540073 
 2420000    1.1005263 9.9985728e-05   0.48986877   0.01714462            0   0.47272415    1.6370329    2.1269017    5.5397478 
 2425000    1.0469882 8.9397125e-05   0.56731078  0.015939252            0   0.55137153     1.557395    2.1247057    5.1761276 
 2430000    1.0985597 1.0400941e-05   0.46461454 0.0027402129            0   0.46187433    1.6341075    2.0987221    2.4537408 
 2435000    1.0896869 5.1068811e-07   0.47524308 0.0058437391            0   0.46939934    1.6209093    2.0961524    2.1135839 
 2440000    1.0773549 -0.00017176822    0.4730864 0.0069351506            0   0.46615125    1.6025654    2.0756518   -3.7873701 
 2445000    1.0692038 2.6079967e-05   0.49860394 0.0071398608            0   0.49146408    1.5904407    2.0890446    2.9792408 
 2450000      1.08114 -5.9374742e-05   0.47350298 0.0041143834            0   0.46938859    1.6081957    2.0816987  0.055040869 
 2455000    1.0984868 6.090967e-05   0.45103002   0.01507071            0   0.43595931    1.6339991    2.0850291    4.1640792 
 2460000    1.0642179 -1.3790683e-05   0.49646709  0.035887381            0   0.46057971    1.5830241    2.0794912    1.6087692 
 2465000   0.98936159 4.1694795e-05   0.58432954  0.033262131            0   0.55106741    1.4716754    2.0560049    3.4791872 
 2470000     1.055141 -6.2403956e-05   0.50233112  0.010134567            0   0.49219656    1.5695222    2.0718533 -0.058201731 
 2475000    1.0885489 -1.5943211e-05   0.46395541 0.0010771252            0   0.46287829    1.6192165    2.0831719     1.538977 
 2480000    1.1050843 -0.00015800762   0.42471816 0.0019102864            0   0.42280787    1.6438128     2.068531   -3.3247958 
 2485000    1.0871514 7.0106206e-06    0.4425296  0.011061795            0    0.4314678    1.6171377    2.0596673    2.2989632 
 2490000    1.0364481 0.00012302121   0.52974931  0.030934849            0   0.49881446    1.5417166    2.0714659    6.2705898 
 2495000    1.0738305 0.00014292997   0.48342294  0.026069574            0   0.45735337    1.5973229    2.0807458     6.959422 
 2500000    1.1151695 -3.8598555e-05   0.43370513  0.012268551            0   0.42143658    1.6588147    2.0925198    0.7750225 
 2505000    1.0477748 3.0940427e-05   0.53819625  0.012103329            0   0.52609293    1.5585651    2.0967613    3.1528612 
 2510000      1.06904 -9.6213459e-05   0.52890196  0.034790453            0    0.4941115     1.590197     2.119099   -1.1649871 
 2515000    1.0634776 -2.7447415e-06   0.54246263  0.093504706            0   0.44895792    1.5819229    2.1243856    2.0306984 
 2520000    1.0852989 -6.3275535e-05   0.54709726  0.022397456            0   0.52469981    1.6143821    2.1614793 0.0016743913 
 2525000    1.0957423 0.00013364065   0.50942397  0.029021028            0   0.48040294    1.6299166    2.1393406    6.7009413 
 2530000    1.1031598 1.4560436e-05   0.49628984  0.018942637            0    0.4773472    1.6409502      2.13724    2.6342362 
 2535000    1.1122109 6.4599627e-05   0.45929439  0.035683821            0   0.42361057    1.6544137    2.1137081    4.3187087 
 2540000    1.0499479 -0.00028735722   0.56206892  0.031024764            0   0.53104415    1.5617975    2.1238664   -7.6845933 
 2545000    1.0652718 -0.00017649058   0.53624751  0.019565225            0   0.51668228    1.5845918    2.1208393   -3.9033723 
 2550000     1.100152 4.4433204e-05   0.50350836  0.022357266            0    0.4811511    1.6364761    2.1399845    3.6566379 
 2555000    1.0632199 7.2876354e-05   0.57000409  0.033504123            0   0.53649997    1.5815397    2.1515438    4.6390566 
 2560000    1.1411468 4.5939984e-05   0.44537952  0.039996986            0   0.40538253    1.6974558    2.1428353    3.7109201 
 2565000    1.0566473 4.2916526e-05   0.56102905  0.024901128            0   0.53612792    1.5717628    2.1327918    3.5976759 
 2570000    1.0922715 3.8542287e-05   0.51169888  0.015127618            0   0.49657127    1.6247538    2.1364527    3.4520294 
 2575000    1.1231758 2.0719392e-05   0.47536363  0.050127228            0    0.4252364    1.6707239    2.1460876    2.8533095 
 2580000    1.1293438 4.365707e-05   0.48540731  0.036398737            0   0.44900858     1.679899    2.1653063    3.6554676 
 2585000    1.0917275 -7.0530087e-05    0.5189752 0.0042304546            0   0.51474475    1.6239446    2.1429198  -0.26450715 
 2590000     1.135033 -4.0062446e-05   0.44975477 0.0088915553            0   0.44086322    1.6883616    2.1381164   0.77065156 
 2595000    1.1472896  4.13757e-05   0.41725167  0.016638854            0   0.40061281    1.7065933    2.1238449    3.5361355 
 2600000    1.1157684 -0.00013727422   0.48926535  0.023350411            0   0.46591494    1.6597055    2.1489708   -2.5366559 
 2605000    1.0934525 -8.9262648e-05   0.52869402  0.038708403            0   0.48998562    1.6265105    2.1552046  -0.89162713 
 2610000    1.1018009 -0.00011083897   0.48856667  0.016907843            0   0.47165883    1.6389289    2.1274956   -1.6558081 
 2615000    1.0835989 4.2583969e-05   0.49600572 0.0073211498            0   0.48868457    1.6118534    2.1078591    3.5613919 
 2620000    1.1258184 0.00016110687   0.43253331  0.018672748            0   0.41386057    1.6746549    2.1071883    7.6063029 
 2625000    1.0886313 -4.7492703e-05   0.50494403  0.016012896            0   0.48893113     1.619339    2.1242831   0.50319879 
 2630000    1.0974036 6.0541817e-05   0.49833215  0.052503081            0   0.44582907    1.6323879    2.1307201    4.1972141 
 2635000    1.1615288 -0.00013190728   0.41799817  0.027281665            0    0.3907165    1.7277741    2.1457723   -2.3566629 
 2640000    1.1116984 -7.3663754e-05   0.48749682  0.030624515            0    0.4568723    1.6536514    2.1411482  -0.37324127 
 2645000    1.1050654 -6.0026397e-05    0.4983803  0.039051217            0   0.45932908    1.6437848    2.1421651  0.093264119 
 2650000    1.1362018 0.00014846479   0.43139179  0.020630189            0    0.4107616    1.6901002     2.121492      7.18909 
 2655000    1.1069762 0.00017832745    0.4488957 0.0048860944            0   0.44400961     1.646627    2.0955227     8.182433 
 2660000    1.1081513 -5.59374e-05   0.42347963 0.0045142276            0    0.4189654     1.648375    2.0718546   0.16252472 
 2665000    1.0206033 -7.4699537e-05    0.5331568   0.01424578            0   0.51891102    1.5181475    2.0513043  -0.49843996 
 2670000    1.0440352 -3.763289e-06   0.51919329  0.020527839            0   0.49866545    1.5530023    2.0721956     1.943742 
 2675000    1.1330009 6.235818e-05   0.37075466 0.0086540363            0   0.36210062    1.6853389    2.0560936    4.1845861 
 2680000    1.0482459 4.8714457e-05   0.47893276 0.0054294417            0   0.47350332    1.5592657    2.0381985    3.7009853 
 2685000    1.0370234 6.6198851e-05   0.49907822 0.0081633704            0   0.49091485    1.5425724    2.0416506     4.301238 
 2690000     1.038922 6.4275492e-05   0.48221269  0.013054023            0   0.46915867    1.5453965    2.0276091     4.221546 
 2695000    1.0349294 -0.00020229922   0.48514613  0.039463497            0   0.44568263    1.5394575    2.0246036   -4.8805431 
 2700000    1.0688942 -5.4564708e-05   0.44338802  0.021119478            0   0.42226854    1.5899802    2.0333682   0.17089283 
 2705000    1.0616674 -5.3257243e-05   0.46234936 0.0021273484            0   0.46022201    1.5792303    2.0415797   0.22373246 
 2710000    1.1029307 -3.0199748e-05   0.39056006  0.009212088            0   0.38134797    1.6406094    2.0311695    1.0003514 
 2715000    1.0715417 0.00021484551   0.44473872  0.018966948            0   0.42577177    1.5939183     2.038657    9.3720504 
 2720000    1.0528846 3.6566595e-05   0.44468779  0.010615561            0   0.43407223    1.5661658    2.0108536    3.2589934 
 2725000   0.96503608 -1.9510853e-06   0.55152101 0.0064403079            0   0.54508071    1.4354912    1.9870122    1.9204151 
 2730000   0.96406721 -0.00012702677   0.52428659  0.010271262            0   0.51401533      1.43405    1.9583366   -2.3775106 
 2735000    1.0079105 -0.0002234372   0.44902927  0.018337394            0   0.43069188    1.4992668    1.9482961   -5.6783603 
 2740000    1.0009247 2.1618023e-06   0.44964413  0.026388602            0   0.42325552    1.4888755    1.9385196    2.0123091 
 2745000    1.0442759 0.00013111593   0.43039182  0.034234029            0   0.39615779    1.5533604    1.9837522     6.459176 
 2750000   0.97601765 3.5299004e-05   0.52585994  0.029827493            0   0.49603245    1.4518263    1.9776862    3.1825589 
 2755000   0.98494903 1.3442306e-05   0.48252138  0.017365355            0   0.46515603    1.4651117    1.9476331    2.4064638 
 2760000    1.0672351 0.00011079778   0.36272805  0.017049649            0    0.3456784    1.5875122    1.9502402    5.7321377 
 2765000    1.0311268 -2.8077195e-05   0.42661038 0.0046089556            0   0.42200142    1.5338011    1.9604114    1.0020432 
 2770000    1.0207596 -0.00016046548   0.43504032 0.0046093797            0   0.43043094    1.5183799    1.9534203   -3.5238013 
 2775000    1.0281328 1.3292116e-05   0.42179219 0.0075431477            0   0.41424904    1.5293476    1.9511398     2.404844 
 2780000   0.99940938 3.2740606e-05   0.46395236 0.0031038813            0   0.46084847    1.4866214    1.9505738    3.0681198 
 2785000   0.99852321 -6.1340683e-05   0.44951211 0.0018090244            0   0.44770308    1.4853033    1.9348154  -0.15894661 
 2790000    0.9812352 0.00010048799   0.48201662 0.0041913827            0   0.47782524    1.4595874     1.941604     5.371594 
 2795000   0.98736722 -4.7107265e-05   0.47138136   0.01916564            0   0.45221572    1.4687087    1.9400901   0.33216213 
 2800000   0.93509138 -0.00016401354    0.5389892  0.025960254            0   0.51302895    1.3909484    1.9299376   -3.6683912 
 2805000    1.0037811 -0.0001075072   0.41663822 0.0078237865            0   0.40881444    1.4931244    1.9097626   -1.7598165 
 2810000   0.95877986 -2.8983481e-05   0.51146158 0.0060270581            0   0.50543452     1.426185    1.9376466   0.94834381 
 2815000   0.99553974 7.7585126e-05   0.45996572   0.01433794            0   0.44562778    1.4808654    1.9408311      4.58907 
 2820000    1.0191454 8.9684344e-06   0.41608987  0.035235515            0   0.38085435    1.5159788    1.9320687    2.2381912 
 2825000   0.98408183 -0.00020303883   0.44060018  0.012423498            0   0.42817668    1.4638217    1.9044219   -5.0259702 
 2830000   0.98856115 -7.4894168e-05    0.4381324  0.014508299            0    0.4236241    1.4704847    1.9086171   -0.6477705 
 2835000    1.0087815 6.9880887e-05   0.40756274  0.013162007            0   0.39440073    1.5005625    1.9081253    4.2933929 
 2840000    0.9346051 -7.2137788e-05   0.52343988  0.019881587            0   0.50355829    1.3902251     1.913665  -0.54863819 
 2845000   0.99334791 8.2298513e-05   0.44238201  0.016240922            0   0.42614109     1.477605     1.919987    4.7291096 
 2850000   0.98132033 -5.4578793e-05     0.434123 0.0058049719            0   0.42831803     1.459714     1.893837  0.030880859 
 2855000   0.99968863 -0.00018883084   0.40426674 0.0042463873            0   0.40002036    1.4870368    1.8913036   -4.5541223 
 2860000   0.99627089 -3.0879948e-05   0.41910175  0.017337334            0   0.40176441     1.481953    1.9010547   0.84701914 
 2865000   0.95035782 -0.00013726534   0.49248355  0.044138358            0   0.44834519    1.4136573    1.9061408   -2.7791828 
 2870000   0.98864669 -7.2866925e-07   0.44114767  0.050445838            0   0.39070183    1.4706119    1.9117596    1.8868877 
 2875000   0.98255021 0.00022760925   0.42810408  0.019066011            0   0.40903807    1.4615434    1.8896475      9.65871 
 2880000   0.96814787 -3.4276873e-05   0.45619283  0.016671393            0   0.43952143      1.44012    1.8963128   0.72632883 
 2885000   0.99690413 -0.00016358437    0.4125313  0.018013578            0   0.39451772    1.4828949    1.8954262   -3.6882535 
 2890000   0.98488462 7.9426383e-05   0.44058842 0.0081167948            0   0.43247162    1.4650159    1.9056043    4.6166915 
 2895000    0.9735961 -6.0272575e-05   0.42205251  0.018472781            0   0.40357973    1.4482242    1.8702767   -0.1870272 
 2900000    0.9743533 -7.4892031e-05   0.41812661  0.023056093            0   0.39507052    1.4493505    1.8674771  -0.68883749 
 2905000   0.93449415 5.7592594e-05   0.48901308  0.027255607            0   0.46175747      1.39006    1.8790731    3.8449003 
 2910000   0.97938863 9.7080092e-05   0.42209934  0.018358064            0   0.40374127    1.4568406    1.8789399    5.1926071 
 2915000   0.99738122 -7.1489585e-06   0.42465395 0.0057664527            0    0.4188875    1.4836046    1.9082585    1.6642407 
 2920000   0.97670981 -9.3199574e-05   0.47508982  0.015109242            0   0.45998058    1.4528558    1.9279457   -1.2532665 
 2925000   0.98397715 0.0001004638   0.43774478  0.017637446            0   0.42010733     1.463666    1.9014108    5.3305753 
 2930000   0.92775374 0.0001705252   0.50407577   0.02638597            0    0.4776898    1.3800337    1.8841095    7.7047029 
 2935000    1.0422744 0.00010980755   0.34347876 0.0065503118            0   0.33692845    1.5503832    1.8938619    5.6419596 
 2940000    1.0077515 7.5574973e-06   0.38785846  0.010124733            0   0.37773372    1.4990303    1.8868888    2.1448514 
 2945000    1.0079044 -0.00016953297   0.40243815  0.023753112            0   0.37868504    1.4992579     1.901696   -3.8850295 
 2950000   0.96234763 -0.00016872357   0.47405091  0.008581409            0    0.4654695    1.4314921     1.905543   -3.8535549 
 2955000   0.99235263 -1.6054376e-05   0.41728113  0.003895726            0   0.41338541    1.4761245    1.8934057    1.3454163 
 2960000    1.0053867 9.0339692e-05   0.38211256 0.0073649353            0   0.37474762    1.4955127    1.8776252      4.96122 
 2965000   0.96176438 6.0404365e-05   0.44572969 0.0045410979            0   0.44118859    1.4306245    1.8763542    3.9381565 
 2970000   0.94179061 -5.4024996e-05    0.4946654 0.0056835554            0   0.48898184    1.4009135    1.8955789  0.051525739 
 2975000    1.0557601 6.4125677e-05   0.36055922  0.021376138            0   0.33918308    1.5704431    1.9310023    4.1198254 
 2980000     1.053395 3.7364649e-05   0.37833526     0.019875            0   0.35846026    1.5669251    1.9452604    3.2206404 
 2985000   0.95920323 5.1672819e-05   0.50401938  0.046188644            0   0.45783074    1.4268148    1.9308342    3.6945997 
 2990000   0.91568761 1.0511735e-05   0.55638861  0.047147647            0   0.50924096    1.3620853    1.9184739    2.2772745 
 2995000    0.9993666 -0.00014709077   0.41724543  0.030404777            0   0.38684066    1.4865578    1.9038033   -3.1168949 
[...]
19285000   0.98790596 6.5403611e-05    0.4811039  0.024085755            0   0.45701815    1.4695101     1.950614    4.1830573 
19290000   0.99049694 -0.00013758361   0.45585782  0.014418446            0   0.44143938    1.4733642     1.929222   -2.7669653 
19295000   0.99951656 1.4211353e-05   0.43730182 0.0060399144            0    0.4312619    1.4867809    1.9240827    2.4091635 
19300000   0.97047446 7.0405858e-05   0.47523491  0.016066104            0   0.45916881    1.4435808    1.9188157    4.3220023 
19305000   0.94947443 -4.207128e-05   0.51404541  0.020183803            0   0.49386161    1.4123432    1.9263886   0.49035562 
19310000   0.97828015 1.5219901e-05   0.47820591  0.014789632            0   0.46341627    1.4551917    1.9333976    2.4529036 
19315000   0.99581521 -2.0275783e-05   0.46306413 0.0055562576            0   0.45750788    1.4812751    1.9443393    1.2522592 
19320000     1.013759 8.2351823e-05   0.44945348 0.0019922522            0   0.44746123    1.5079665      1.95742    4.7683622 
19325000    1.0009151 3.1614262e-06   0.47120808   0.01838564            0   0.45282244    1.4888612    1.9600693    2.0679793 
19330000    1.0576964 -7.4840091e-05   0.39131621  0.026119488            0   0.36519672    1.5733233    1.9646396  -0.58990221 
19335000    1.0255097 -2.4446043e-05   0.44836136  0.021833367            0   0.42652799    1.5254457     1.973807    1.1393821 
19340000    0.9881862 -0.00019114869   0.53476829  0.017765409            0   0.51700288     1.469927    2.0046953   -4.5198468 
19345000    1.0431086 7.1482117e-05   0.44398508  0.013114154            0   0.43087093     1.551624    1.9956091     4.435532 
19350000    1.0512399 0.0001967102   0.45162584  0.017440702            0   0.43418514    1.5637193    2.0153451    8.7297201 
19355000    1.0199322 -7.6640728e-05   0.49465366  0.023753021            0   0.47090064    1.5171491    2.0118027  -0.60420076 
19360000    1.0133098 -2.7928548e-05   0.51208879  0.017865719            0   0.49422307    1.5072983    2.0193871    1.0660926 
19365000     1.002069 -3.9470051e-06   0.51200201  0.016783328            0   0.49521868    1.4905776    2.0025796    1.8678551 
19370000    1.0065913 -0.000155827   0.51056582  0.026924024            0    0.4836418    1.4973046    2.0078704   -3.3110244 
19375000    1.0416861 -5.6750586e-05   0.45195842  0.021899165            0   0.43005926    1.5495081    2.0014665  0.064379804 
19380000   0.99380035 0.00010111561    0.5371995  0.013387552            0   0.52381195     1.478278    2.0154775    5.4668905 
19385000     1.059469 9.8998988e-05   0.43279434  0.032289469            0   0.40050487    1.5759601    2.0087545    5.3879199 
19390000   0.97797093 0.00013540654   0.54028833  0.079087642            0   0.46120069    1.4547318    1.9950201    6.6168968 
19395000   0.96173158 1.5810575e-07   0.55915269  0.034040219            0   0.52511247    1.4305757    1.9897284    1.9951251 
19400000   0.99276468 -0.00021598236    0.5038849  0.012961604            0   0.49092329    1.4767375    1.9806224   -5.3915755 
19405000    1.0112935 5.1062229e-05   0.47723745 0.0065764893            0   0.47066096     1.504299    1.9815365    3.7244606 
19410000    1.0560314 9.9361289e-06    0.4038216  0.009221543            0   0.39460006    1.5708466    1.9746683    2.3138215 
19415000    1.0244192 3.8571649e-05   0.44556916 0.0099030517            0   0.43566611    1.5238235    1.9693927    3.2859716 
19420000   0.97800406 3.6543704e-05   0.52072075  0.020735408            0   0.49998534     1.454781    1.9755018    3.2228602 
19425000   0.94863833 -4.6568692e-05   0.56342543  0.028296074            0   0.53512936    1.4110995    1.9745249   0.38498027 
19430000    1.0051645 -4.074199e-05   0.46671399  0.011435413            0   0.45527858    1.4951823    1.9618963   0.57123633 
19435000    1.0332463 0.00012989774   0.44705196 0.0039551653            0   0.44309679    1.5369538    1.9840058    6.4178486 
19440000   0.95522733 9.9898653e-05   0.54908332  0.026442259            0   0.52264106    1.4209006     1.969984     5.379858 
19445000    1.0215154 0.00011341445   0.48386959  0.032030052            0   0.45183954    1.5195041    2.0033737    5.8745869 
19450000    1.0253575 -7.4538582e-06   0.47646425   0.03692072            0   0.43954353    1.5252192    2.0016835    1.7472584 
19455000    1.0540572 0.0001463554   0.43140559  0.017986448            0   0.41341914      1.56791    1.9993156    6.9949133 
19460000    1.0510289 0.00024730792   0.43919122 0.0092931441            0   0.42989808    1.5634055    2.0025967     10.44404 
19465000    1.0224638 -4.9064787e-05    0.5049229 0.0032001446            0   0.50172275    1.5209149    2.0258378   0.35109308 
19470000   0.98694258 -3.756912e-05    0.5540499   0.02194499            0   0.53210491    1.4680771     2.022127   0.73976771 
19475000    1.0050608 -0.00016689302   0.50455532    0.0463634            0   0.45819191    1.4950279    1.9995832    -3.697032 
19480000    1.0330767 -0.0001233105   0.46488329  0.026373526            0   0.43850977    1.5367016    2.0015849   -2.2074136 
19485000    1.0043371 0.00010892226   0.50205521  0.014251573            0   0.48780364    1.4939514    1.9960067    5.7138866 
19490000     1.041424 -9.7560293e-05   0.44339098  0.017898555            0   0.42549243    1.5491182    1.9925092   -1.3375488 
19495000   0.98334725 -0.0001700688   0.52208796  0.043183476            0   0.47890448     1.462729     1.984817    -3.820198 
19500000   0.99314497 3.5899721e-05   0.51690556  0.051896896            0   0.46500866    1.4773031    1.9942087    3.2195859 
19505000    1.0274734 -6.5060849e-05   0.47139136  0.038360735            0   0.43303062    1.5283667     1.999758  -0.22098564 
19510000   0.99524469 -4.4196525e-05    0.4766714  0.021972746            0   0.45469865    1.4804265    1.9570979   0.44852314 
19515000    1.0432544 0.00013565813   0.42917541 0.0072613961            0   0.42191401    1.5518409    1.9810163    6.6114804 
19520000    1.0407705 7.4468518e-05     0.412898  0.025060359            0   0.38783764    1.5481461    1.9610441    4.5029029 
19525000   0.99643434 -1.8176769e-05   0.47725524  0.014798548            0   0.46245669    1.4821961    1.9594513    1.3390176 
19530000   0.98860864 -6.5661568e-06   0.48226923  0.017555597            0   0.46471363    1.4705553    1.9528246    1.7286998 
19535000   0.94782428 6.5476541e-05   0.55149387  0.065041637            0   0.48645224    1.4098886    1.9613825    4.1963151 
19540000    1.0036937 -3.6640642e-05   0.50635902   0.05172232            0    0.4546367    1.4929944    1.9993535    0.7486862 
19545000    1.0142285 7.3898035e-06   0.47054892   0.04374526            0   0.42680366    1.5086648    1.9792138    2.2314524 
19550000    1.0312318 0.00029363343   0.44695643  0.031786761            0   0.41516967    1.5339574    1.9809138    12.003602 
19555000   0.95949446 9.5210611e-05   0.54930453 0.0063129569            0   0.54299157     1.427248    1.9765525    5.2264081 
19560000    1.0740592 -3.4891499e-05   0.38234376 0.00061695024            0   0.38172681     1.597663    1.9800068   0.78904365 
19565000    0.9690733 -1.4889906e-05   0.52626542  0.011547011            0   0.51471841    1.4414965     1.967762    1.4595198 
19570000   0.97741536 -2.6145432e-05   0.51846879  0.018380245            0   0.50008854    1.4539053    1.9723741    1.0799434 
19575000    1.0355699 9.6049024e-05   0.46151207  0.010995449            0   0.45051662    1.5404103    2.0019223    5.2803957 
19580000    1.0050251 -6.4230463e-05   0.50096318  0.012214144            0   0.48874904    1.4949749     1.995938  -0.19646176 
19585000     0.999425 -6.0820684e-05   0.50956432  0.024068373            0   0.48549594    1.4866447     1.996209 -0.079803684 
19590000    1.0478813 -0.00010444596   0.45466318  0.023815388            0   0.43084779    1.5587235    2.0133867   -1.5517022 
19595000    1.0494289 -0.00013339947   0.45126994  0.027725116            0   0.42354482    1.5610255    2.0122955   -2.5410732 
19600000   0.99557363 5.1112428e-05   0.52583892  0.028581403            0   0.49725752    1.4809158    2.0067547    3.7513922 
19605000    1.0422376 0.00010156836   0.46708896  0.014455385            0   0.45263358    1.5503285    2.0174174    5.4842842 
19610000    1.0356236 -6.5584235e-05   0.48006251  0.022983792            0   0.45707872    1.5404901    2.0205526  -0.21805592 
19615000   0.95606452 -8.9631698e-05   0.58573789  0.037710804            0   0.54802709     1.422146    2.0078839   -1.0515448 
19620000    1.0350461 4.4643739e-05   0.44956613  0.046659483            0   0.40290665     1.539631    1.9891971    3.5130368 
19625000   0.94198728 -5.0368426e-06   0.58214271  0.026749794            0   0.55539291    1.4012061    1.9833488    1.8114246 
19630000   0.99845543 4.8061207e-05   0.48221183  0.051677461            0   0.43053437    1.4852025    1.9674143    3.6079035 
19635000    0.8977852 3.4218373e-05   0.62846983   0.02773012            0   0.60073971    1.3354555    1.9639253    3.1319124 
19640000    1.0060326 0.00016235909   0.45528389  0.020027341            0   0.43525655    1.4964735    1.9517574    7.4936145 
19645000   0.93505277 0.00018908678   0.55583161  0.011142752            0   0.54468886     1.390891    1.9467226    8.4008848 
19650000    1.0074565 -4.0586805e-07   0.42339903 0.0056947775            0   0.41770425    1.4985916    1.9219906     1.908137 
19655000   0.94821914 -8.8233798e-05   0.50738497  0.026162104            0   0.48122287     1.410476    1.9178609   -1.0938527 
19660000   0.96849867 -0.00013062772   0.48140802  0.038043699            0   0.44336432    1.4406418    1.9220498   -2.5367099 
19665000   0.92679212 1.3597876e-05   0.54815749  0.021209424            0   0.52694807    1.3786033    1.9267608    2.3909016 
19670000    0.9556766 9.7582614e-05   0.51614415  0.028312731            0   0.48783142    1.4215689    1.9377131     5.268533 
19675000   0.98771756 4.0236175e-05   0.47088431  0.059630598            0   0.41125372    1.4692299    1.9401142     3.313509 
19680000   0.97343195 -6.4469815e-05   0.49420813  0.083285479            0   0.41092265      1.44798    1.9421882  -0.25838153 
19685000   0.92996077 -5.6067991e-05   0.55236608  0.031500728            0   0.52086535    1.3833166    1.9356827  0.021895314 
19690000    1.0189746 -2.1852763e-05   0.41745154  0.021344074            0   0.39610747    1.5157247    1.9331762    1.1872686 
19695000   0.93139331 0.00021668864   0.55126862  0.025297432            0   0.52597119    1.3854475    1.9367162    9.3330218 
19700000   0.97308896 0.00019010805    0.4621058 0.0078217194            0   0.45428408    1.4474698    1.9095756    8.3985971 
19705000   0.97490929 2.0084726e-05   0.45117659  0.018732325            0   0.43244426    1.4501776    1.9013542    2.5869128 
19710000   0.95181953 -4.3529011e-05   0.48625992   0.01808765            0   0.46817227    1.4158315    1.9020915   0.41630122 
19715000   0.95945219 -0.00015062467   0.46506796   0.01293475            0   0.45213321    1.4271851    1.8922531    -3.249069 
19720000   0.93366338 5.984279e-05   0.51755467  0.035035044            0   0.48251963    1.3888243     1.906379    3.9490128 
19725000   0.96942436 0.00013720725   0.50194052  0.044049761            0   0.45789076    1.4420187    1.9439593    6.6273001 
19730000   0.97067401 1.1612094e-05   0.46034889   0.01281782            0   0.44753107    1.4438776    1.9042265     2.300586 
19735000     1.024816 7.3233848e-05   0.38294258 0.0043513162            0   0.37859126    1.5244137    1.9073563    4.4070717 
19740000   0.95129455 8.325527e-05   0.49735427 0.0095082412            0   0.48784603    1.4150506    1.9124049    4.7541848 
19745000   0.93768576 3.3661742e-05   0.50286178  0.028349692            0   0.47451209    1.3948076    1.8976693    3.0466568 
19750000   0.97599504 -2.8169357e-06    0.4350131  0.028265905            0   0.40674719    1.4517926    1.8868057    1.7906543 
19755000   0.94260931 -7.9938407e-05   0.49071127  0.033669109            0   0.45704216    1.4021314    1.8928426  -0.83572167 
19760000   0.93116968 -0.0001814726     0.514876  0.037627251            0   0.47724875    1.3851149    1.8999909   -4.2942738 
19765000   0.96146192 -0.00015851975   0.47904373    0.0222457            0   0.45679803    1.4301746    1.9092183   -3.5015893 
19770000   0.91455419 -5.6971879e-05   0.52846577 0.0029214964            0   0.52554427    1.3603994    1.8888651 -0.055774988 
19775000    0.9813305 9.4867841e-07   0.45107336 0.0046918342            0   0.44638152    1.4597291    1.9108025     1.943184 
19780000   0.97031034 2.1194815e-05   0.43181439  0.014948604            0   0.41686578    1.4433366     1.875151    2.5986007 
19785000   0.98757696 0.00014531752   0.39919991  0.020870982            0   0.37832893    1.4690207    1.8682206     6.828392 
19790000   0.95680192 0.00014965411   0.46422977 0.0096112876            0   0.45461848    1.4232429    1.8874726    6.9956661 
19795000    0.9763191 8.0845323e-05    0.4327821  0.012267231            0   0.42051487    1.4522747    1.8850568    4.6445771 
19800000   0.97221698 6.1726481e-05   0.45027198  0.022470933            0   0.42780104    1.4461728    1.8964447    4.0033753 
19805000   0.95240237 3.7732768e-05   0.46501591  0.015835169            0   0.44918074    1.4166985    1.8817144    3.1696596 
19810000   0.93497128 5.7419095e-05   0.49844414 0.0029363302            0   0.49550781    1.3907698    1.8892139     3.849119 
19815000   0.89822256 4.098117e-05   0.54836061 0.00070444956            0   0.54765616    1.3361061    1.8844667    3.2832906 
19820000   0.97571465 -0.00010086496    0.4479167  0.007097084            0   0.44081962    1.4513755    1.8992922   -1.5435651 
19825000    1.0335238 -0.0001356357   0.35404293  0.013477656            0   0.34056527    1.5373667    1.8914096   -2.7382891 
19830000   0.94251557 9.7687522e-06   0.47758095  0.012408157            0   0.46517279    1.4019919    1.8795729    2.2130129 
19835000   0.92952545 4.4278311e-05    0.4785639  0.014570047            0   0.46399385    1.3826691     1.861233    3.3725993 
19840000   0.91150205 3.1991613e-05   0.51070188  0.020989299            0   0.48971258    1.3558593    1.8665612    2.9585416 
19845000   0.96556825 8.5268488e-05   0.43801697  0.016453501            0   0.42156346    1.4362828    1.8742997    4.7847975 
19850000   0.94079011 7.7970196e-05   0.49091758  0.019749246            0   0.47116834    1.3994253    1.8903429    4.5517256 
19855000   0.98063065 6.7194832e-05   0.43714958  0.013587943            0   0.42356164    1.4586881    1.8958377    4.1894213 
19860000   0.96613094 6.6900222e-05   0.46719745  0.028499455            0   0.43869799    1.4371198    1.9043172    4.1878448 
19865000   0.88217839 -0.00012720313    0.5821175  0.040006693            0   0.54211081    1.3122404    1.8943579    -2.447509 
19870000   0.90119244 -0.00017593237   0.54506339  0.023000911            0   0.52206248    1.3405238    1.8855871    -4.119571 
19875000   0.91152736 -9.4552131e-05   0.52503786   0.01622581            0   0.50881205     1.355897    1.8809348   -1.3464446 
19880000   0.85524144 -2.3792128e-05   0.59379724  0.038187026            0   0.55561021    1.2721716    1.8659689    1.0538642 
19885000   0.88193972 -4.0963382e-05    0.5687857  0.038972139            0   0.52981357    1.3118853     1.880671   0.48245426 
19890000   0.91454001 -0.00014885318   0.52154286  0.022823088            0   0.49871977    1.3603783    1.8819211    -3.198934 
19895000    0.8974049 -8.9467308e-05   0.55258669  0.025973785            0    0.5266129    1.3348898    1.8874765    -1.166341 
19900000   0.95220451 7.1206727e-06   0.50125735  0.028281731            0   0.47297562    1.4164042    1.9176616    2.1607139 
19905000   0.94494926 8.0729589e-05   0.52286674  0.022563897            0   0.50030284     1.405612    1.9284788    4.6840487 
19910000   0.92571194 9.7200783e-05   0.54745465  0.017401576            0   0.53005307    1.3769965    1.9244512    5.2422379 
19915000     0.935072 -6.5833977e-05   0.54612292  0.036495317            0   0.50962761    1.3909196    1.9370425  -0.31009057 
19920000   0.98144277 -0.00012112171    0.4455773  0.010247332            0   0.43532997    1.4598961    1.9054734   -2.2288142 
19925000   0.87251915 1.684367e-05   0.61333912  0.014508314            0    0.5988308    1.2978722    1.9112114     2.486142 
19930000   0.96306869 -1.8449926e-05   0.49462932  0.017892944            0   0.47673638    1.4325647     1.927194    1.2974365 
19935000   0.93400788 -0.00021179813   0.52467947  0.010792494            0   0.51388697    1.3893367    1.9140162     -5.31536 
19940000   0.89070625 -4.248593e-05   0.58295224  0.011337055            0   0.57161518    1.3249255    1.9078778   0.45769136 
19945000   0.93993779 0.00016978062   0.49670272 0.0087052181            0    0.4879975    1.3981575    1.8948602    7.6900386 
19950000   0.90499902 4.6755625e-05   0.52937947 0.0045230952            0   0.52485637     1.346186    1.8755655    3.4714908 
19955000   0.96683441 -6.3987311e-05   0.43044337 0.0016220517            0   0.42882132    1.4381662    1.8686095  -0.31549067 
19960000   0.96198576 5.8729869e-05   0.41400842 0.0015679818            0   0.41244043    1.4309538    1.8449622    3.8496084 
19965000   0.91517859 3.4491342e-05   0.49899848  0.024158657            0   0.47483982    1.3613281    1.8603266    3.0376311 
19970000   0.95501775 8.3697631e-05   0.46223891  0.031354329            0   0.43088458    1.4205889    1.8828278     4.739707 
19975000   0.95745787 2.364445e-05   0.48355563  0.014314188            0   0.46924144    1.4242186    1.9077742    2.7148381 
19980000   0.90553205 -1.7147366e-05   0.57101763  0.027237185            0   0.54378044    1.3469789    1.9179966    1.3326998 
19985000   0.94538728 0.00011377639   0.48345255  0.026539909            0   0.45691264    1.4062636    1.8897161    5.7732835 
19990000   0.90791241 0.00011853861   0.55317444 0.0022976622            0   0.55087678    1.3505197    1.9036941    5.9498119 
19995000   0.92532045 0.00012365575   0.51168534 0.00039768515            0   0.51128766    1.3764142    1.8880995    6.1088823 
20000000   0.95744474 3.3617285e-05   0.45179494  0.022331267            0   0.42946368    1.4241991     1.875994     3.023464 
Loop time of 231.098 on 1 procs for 20000000 steps with 120 atoms

Performance: 74773.321 tau/day, 86543.196 timesteps/s
99.7% CPU use with 1 MPI tasks x no OpenMP threads

MPI task timing breakdown:
Section |  min time  |  avg time  |  max time  |%varavg| %total
---------------------------------------------------------------
Pair    | 11.841     | 11.841     | 11.841     |   0.0 |  5.12
Bond    | 34.883     | 34.883     | 34.883     |   0.0 | 15.09
Neigh   | 20.358     | 20.358     | 20.358     |   0.0 |  8.81
Comm    | 50.912     | 50.912     | 50.912     |   0.0 | 22.03
Output  | 0.66369    | 0.66369    | 0.66369    |   0.0 |  0.29
Modify  | 103.93     | 103.93     | 103.93     |   0.0 | 44.97
Other   |            | 8.512      |            |       |  3.68

Nlocal:        120.000 ave         120 max         120 min
Histogram: 1 0 0 0 0 0 0 0 0 0
Nghost:        0.00000 ave           0 max           0 min
Histogram: 1 0 0 0 0 0 0 0 0 0
Neighs:        46.0000 ave          46 max          46 min
Histogram: 1 0 0 0 0 0 0 0 0 0

Total # of neighbors = 46
Ave neighs/atom = 0.38333333
Ave special neighs/atom = 5.9000000
Neighbor list builds = 4120
Dangerous builds = 0
write_restart restart.equil
System init for write_restart ...
WARNING: Communication cutoff 1.4200000000000002 is shorter than a bond length based estimate of 1.8. This may lead to errors. (../comm.cpp:667)
#--------------End of Input file ------------------
Total wall time: 0:03:51
