LAMMPS (29 Oct 2020)
###################### polyelectrolyte complexation ######################
clear

#Initialization
#------------------------------------
units				lj
dimension			3
atom_style			full
boundary			p p p

#Atom Definition
#-------------------------------------
read_data			data.complexation
Reading data file ...
  orthogonal box = (-80.000000 -80.000000 -80.000000) to (80.000000 80.000000 80.000000)
  1 by 1 by 1 MPI processor grid
  reading atoms ...
  120 atoms
  scanning bonds ...
  1 = max bonds/atom
  reading bonds ...
  119 bonds
Finding 1-2 1-3 1-4 neighbors ...
  special bond factors lj:    0.0      0.0      0.0     
  special bond factors coul:  0.0      0.0      0.0     
     2 = max # of 1-2 neighbors
     2 = max # of 1-3 neighbors
     4 = max # of 1-4 neighbors
     6 = max # of special neighbors
  special bonds CPU = 0.000 seconds
  read_data CPU = 0.002 seconds

#Force definition
#----------------------------------------------
#Bond definition
bond_style			harmonic
bond_coeff			1 5000 1
#Pair definition
special_bonds	lj 0 1 1
Finding 1-2 1-3 1-4 neighbors ...
  special bond factors lj:    0.0      1.0      1.0     
  special bond factors coul:  0.0      0.0      0.0     
     2 = max # of 1-2 neighbors
     2 = max # of 1-3 neighbors
     4 = max # of 1-4 neighbors
     6 = max # of special neighbors
  special bonds CPU = 0.000 seconds
pair_style		 lj/cut 1.12
pair_modify 		 shift yes
pair_coeff	1 1 1 1 1.12

#Timestep etc
#--------------------------------------------
timestep		1e-05
run_style		verlet
velocity		all	create	1	11

#Fix
#---------------------------------------
group polymers type 1
120 atoms in group polymers
fix 1 all nve
fix 2 all langevin 1	1	10	11
fix 3 polymers recenter INIT INIT INIT units box

#Dump
#------------------------------------------------
compute  1 all gyration
variable  myRg2 equal c_1
variable  i equal step
fix  mythermofile all print 5000 "$i ${myRg2}" file radius_of_gyration.dat screen no

thermo_style		 custom step temp press pe evdwl ecoul ebond ke etotal enthalpy
thermo 	5000
dump	3 all custom 5000 dump.lammpstrj id mol type xu yu zu
run		20000000
Neighbor list info ...
  update every 1 steps, delay 10 steps, check yes
  max neighbors/atom: 2000, page size: 100000
  master list distance cutoff = 1.42
  ghost atom cutoff = 1.42
  binsize = 0.71, bins = 226 226 226
  1 neighbor lists, perpetual/occasional/extra = 1 0 0
  (1) pair lj/cut, perpetual
      attributes: half, newton on
      pair build: half/bin/newton
      stencil: half/bin/3d/newton
      bin: standard
WARNING: Communication cutoff 1.4200000000000002 is shorter than a bond length based estimate of 1.8. This may lead to errors. (../comm.cpp:667)
Per MPI rank memory allocation (min/avg/max) = 54.72 | 54.72 | 54.72 Mbytes
Step Temp Press PotEng E_vdwl E_coul E_bond KinEng TotEng Enthalpy 
       0            1 2.9052734e-05            0            0            0            0       1.4875       1.4875    2.4791667 
    5000   0.82208928 -0.00042498301   0.25304371            0            0   0.25304371    1.2228578    1.4759015   -13.030185 
   10000   0.45518833 -0.0010704733   0.80435507            0            0   0.80435507   0.67709264    1.4814477   -35.057374 
   15000   0.71103969 -0.00056405912   0.43741733            0            0   0.43741733    1.0576715    1.4950889   -17.758129 
   20000   0.76732792 -0.00031479259   0.38522589            0            0   0.38522589    1.1414003    1.5266262   -9.2182943 
   25000   0.60949445 -0.00074136507   0.61476603            0            0   0.61476603   0.90662299     1.521389   -23.783872 
   30000   0.62979567 -0.00072630472   0.58850766            0            0   0.58850766   0.93682106    1.5253287   -23.265872 
   35000   0.80670174 -0.00028908042   0.32298571            0            0   0.32298571    1.1999688    1.5229545   -8.3443238 
   40000   0.74418948 -0.00030057201   0.43792963            0            0   0.43792963    1.1069819    1.5449115   -8.7146131 
   45000   0.66780933 -0.00055592125   0.56029672            0            0   0.56029672   0.99336637    1.5536631   -17.421782 
   50000   0.74061087 -0.00054143126   0.46095974            0            0   0.46095974    1.1016587    1.5626184   -16.918235 
   55000   0.79568975 -0.00027466338   0.35789813            0            0   0.35789813    1.1835885    1.5414866   -7.8336901 
   60000   0.77175841 -0.00027338074   0.40598342            0            0   0.40598342    1.1479906     1.553974   -7.7774219 
   65000   0.81329962 -0.00024330582   0.35325504            0            0   0.35325504    1.2097832    1.5630382   -6.7418004 
   70000    0.8153766 -0.00022542146   0.35293749            0            0   0.35293749    1.2128727    1.5658102   -6.1285755 
   75000   0.84689614 -0.00022985178   0.31654971            0            0   0.31654971     1.259758    1.5763077   -6.2692996 
   80000   0.85049435 -0.00014074859   0.31277574            0            0   0.31277574    1.2651104    1.5778861   -3.2263323 
   85000   0.82844099 -0.00016566259   0.34742297            0            0   0.34742297     1.232306    1.5797289   -4.0748876 
   90000   0.86224871 -0.00012730331   0.31178041            0            0   0.31178041     1.282595    1.5943754   -2.7509109 
   95000   0.86132991 -0.00014048284   0.30937873            0            0   0.30937873    1.2812282     1.590607   -3.2045405 
  100000   0.84696718 -0.00011391395    0.3055017            0            0    0.3055017    1.2598637    1.5653654   -2.3228975 
  105000    0.8502947 -7.2431727e-05   0.29540944            0            0   0.29540944    1.2648134    1.5602228  -0.91211347 
  110000   0.82805777 -3.1488808e-05   0.33286923            0            0   0.33286923    1.2317359    1.5646052   0.48978717 
  115000   0.82742911 -0.00010460218   0.32342235            0            0   0.32342235    1.2308008    1.5542231    -2.016198 
  120000   0.78771675 -2.2138593e-05   0.39147039            0            0   0.39147039    1.1717287     1.563199   0.80753505 
  125000   0.85661943 -5.8370406e-05   0.30735678            0            0   0.30735678    1.2742214    1.5815782  -0.41079834 
  130000   0.84644185 -7.761817e-05   0.31396113            0            0   0.31396113    1.2590823    1.5730434   -1.0763235 
  135000   0.88294418 9.8615844e-05   0.29138199            0            0   0.29138199    1.3133795    1.6047615    4.9708489 
  140000   0.85863589 -0.00013075956   0.33352509            0            0   0.33352509    1.2772209     1.610746   -2.8525137 
  145000   0.84379835 -3.6124222e-05   0.35298948            0            0   0.35298948      1.25515    1.6081395   0.37509942 
  150000   0.88840207 5.2018704e-05   0.29205873            0            0   0.29205873    1.3214981    1.6135568    3.3891286 
  155000   0.89317023 -5.3854876e-05   0.29418698            0            0   0.29418698    1.3285907    1.6227777  -0.21546873 
  160000   0.90445619 -0.00012108839   0.27944911            0            0   0.27944911    1.3453786    1.6248277   -2.5083226 
  165000   0.85813347 6.8807574e-05   0.34555572            0            0   0.34555572    1.2764735    1.6220293    3.9706611 
  170000   0.86582986 2.1458882e-05   0.34035925            0            0   0.34035925    1.2879219    1.6282812    2.3607443 
  175000   0.84688799 -0.00013589066   0.36247559            0            0   0.36247559    1.2597459    1.6222215   -3.0161799 
  180000   0.87907052 2.6417894e-06   0.31903335 0.00013988116            0   0.31889347    1.3076174    1.6266508    1.7168238 
  185000   0.92987587 5.955247e-05   0.23871257 0.0046727024            0   0.23403987    1.3831904    1.6219029    3.6546272 
  190000   0.88044929 -6.372344e-05   0.30737801 0.0077765574            0   0.29960146    1.3096683    1.6170463   -0.5580471 
  195000   0.87022033 -2.9002098e-05    0.3129128 0.00084964292            0   0.31206316    1.2944527    1.6073655   0.61742726 
  200000   0.87759257 8.7835727e-05   0.30021631            0            0   0.30021631     1.305419    1.6056353    4.6037614 
  205000    0.8418154 -9.869481e-05   0.36582762            0            0   0.36582762    1.2522004     1.618028   -1.7507548 
  210000   0.86800052 4.9018223e-06   0.30072579            0            0   0.30072579    1.2911508    1.5918766    1.7591921 
  215000   0.88314745 6.2304994e-05   0.29452902            0            0   0.29452902    1.3136818    1.6082109     3.734888 
  220000   0.90227795 -0.00021257079    0.2744931            0            0    0.2744931    1.3421385    1.6166316   -5.6391181 
  225000   0.87919714 0.00014112884   0.29563114            0            0   0.29563114    1.3078057    1.6034369    6.4206347 
  230000   0.85706777 -4.448253e-05   0.30499373            0            0   0.30499373    1.2748883     1.579882  0.061544992 
  235000   0.82196524 -0.00018170518   0.36578001            0            0   0.36578001    1.2226733    1.5884533     -4.61375 
  240000   0.89031678 6.2957634e-05    0.2830052            0            0    0.2830052    1.3243462    1.6073514    3.7563053 
  245000   0.86635901 4.3271186e-05    0.3163701            0            0    0.3163701     1.288709    1.6050791    3.0820689 
  250000   0.82025613 -0.0001540129   0.40841584            0            0   0.40841584     1.220131    1.6285468   -3.6284269 
  255000   0.88777696 3.701608e-05   0.30059928            0            0   0.30059928    1.3205682    1.6211675    2.8846497 
  260000   0.84211895 0.00018131122   0.33446498            0            0   0.33446498    1.2526519    1.5871169    7.7758732 
  265000   0.83468297 -0.00025690268   0.35207719            0            0   0.35207719    1.2415909    1.5936681   -7.1752768 
  270000   0.84206022 0.00015111558   0.34938054            0            0   0.34938054    1.2525646    1.6019451    6.7600236 
  275000   0.86176862 -4.7484707e-05   0.31692278            0            0   0.31692278    1.2818808    1.5988036 -0.022007725 
  280000   0.85336405 1.4281592e-05   0.33357611            0            0   0.33357611     1.269379    1.6029551    2.0904335 
  285000   0.81846786 -1.696058e-05   0.37513111            0            0   0.37513111    1.2174709    1.5926021    1.0136809 
  290000   0.86836563 -8.9034845e-05   0.29600689            0            0   0.29600689    1.2916939    1.5877008   -1.4513553 
  295000    0.8672278 8.0284188e-05   0.29845876            0            0   0.29845876    1.2900013    1.5884601    4.3288271 
  300000   0.82680552 -6.0281538e-06    0.3727245            0            0    0.3727245    1.2298732    1.6025977    1.3968367 
  305000   0.83929842 -0.00022447637    0.3420865            0            0    0.3420865    1.2484564    1.5905429   -6.0715838 
  310000   0.87574316 7.1624741e-05   0.27669082            0            0   0.27669082     1.302668    1.5793588    4.0241499 
  315000   0.80320954 -5.0021949e-05   0.36865815            0            0   0.36865815    1.1947742    1.5634323  -0.14398351 
  320000   0.82581719 -8.1752892e-05   0.33401573            0            0   0.33401573    1.2284031    1.5624188   -1.2280799 
  325000   0.84149236 -9.1559734e-05   0.31361848            0            0   0.31361848    1.2517199    1.5653384   -1.5599006 
  330000   0.81974848 0.0002285673   0.32984317            0            0   0.32984317    1.2193759     1.549219    9.3509829 
  335000    0.8064459 -0.00011975684   0.34494924            0            0   0.34494924    1.1995883    1.5445375   -2.5431627 
  340000   0.85209386 -0.00012642999   0.28348466            0            0   0.28348466    1.2674896    1.5509743   -2.7645027 
  345000   0.84704218 0.00022975791   0.32652313            0            0   0.32652313    1.2599752    1.5864984    9.4289016 
  350000   0.80067957 -0.00018532135   0.38829412            0            0   0.38829412    1.1910109     1.579305   -4.7463304 
  355000   0.87716254 0.00013090003    0.2735394            0            0    0.2735394    1.3047793    1.5783187    6.0463731 
  360000   0.82169841 8.5101916e-05   0.37268102            0            0   0.37268102    1.2222764    1.5949574    4.4997695 
  365000   0.83972084 -8.1557537e-05   0.33209465            0            0   0.33209465    1.2490848    1.5811794   -1.2026512 
  370000   0.84142114 -6.7941749e-05   0.32404565            0            0   0.32404565    1.2516139    1.5756596  -0.74341878 
  375000   0.83420139 0.00014824897   0.32580122            0            0   0.32580122    1.2408746    1.5666758    6.6269074 
  380000   0.81824198 -0.00021408308   0.36265912            0            0   0.36265912    1.2171349    1.5797941   -5.7275751 
  385000   0.81359282 4.6987275e-05   0.35455095            0            0   0.35455095    1.2102193    1.5647703    3.1686026 
  390000   0.85356698 -9.1457271e-05   0.29760831            0            0   0.29760831    1.2696809    1.5672892   -1.5544523 
  395000   0.82739744 8.3654605e-05   0.31946876            0            0   0.31946876    1.2307537    1.5502224     4.405633 
  400000   0.79779212 -3.2021817e-05   0.37006071            0            0   0.37006071    1.1867158    1.5567765   0.46376514 
  405000   0.78099361 -4.4025595e-05   0.38142605            0            0   0.38142605     1.161728     1.543154  0.040413741 
  410000   0.83636017 7.3070372e-05   0.30802903            0            0   0.30802903    1.2440858    1.5521148    4.0462502 
  415000   0.77721324 -0.00013637452   0.39492208            0            0   0.39492208    1.1561047    1.5510268   -3.1038903 
  420000    0.8128173 3.6198359e-07   0.35892911            0            0   0.35892911    1.2090657    1.5679948    1.5803506 
  425000   0.82201734 0.00011298163   0.34796067            0            0   0.34796067    1.2227508    1.5707115    5.4271511 
  430000   0.76274357 -0.00025881073   0.44274151            0            0   0.44274151    1.1345811    1.5773226   -7.2567505 
  435000   0.80312869 7.6578871e-05   0.37452273            0            0   0.37452273    1.1946539    1.5691767    4.1830688 
  440000    0.7788321 4.5434031e-06   0.38636878            0            0   0.38636878    1.1585127    1.5448815     1.699963 
  445000   0.79813692 -0.00017156182   0.36194481            0            0   0.36194481    1.1872287    1.5491735   -4.3068032 
  450000   0.79359021 2.9609967e-05   0.37448201            0            0   0.37448201    1.1804654    1.5549475    2.5656343 
  455000   0.80332959 4.472589e-05   0.36328338            0            0   0.36328338    1.1949528    1.5582362    3.0848799 
  460000   0.77986481 3.3263462e-05    0.3928029            0            0    0.3928029    1.1600489    1.5528518    2.6882447 
  465000   0.77549089 -0.00010433648   0.39379297 0.00044797771            0   0.39334499    1.1535427    1.5473357   -2.0140163 
  470000   0.79169812 0.00015313296     0.384674 0.0034327836            0   0.38124121     1.177651     1.562325    6.7892632 
  475000   0.77721788 -0.00013571614   0.39348314 0.0028939395            0    0.3905892    1.1561116    1.5495947   -3.0828494 
  480000   0.76794568 -6.2512745e-05   0.40826053 0.00095549543            0   0.40730504    1.1423192    1.5505797  -0.58318864 
  485000    0.7568209 5.6755384e-05   0.41896819            0            0   0.41896819    1.1257711    1.5447393    3.4819897 
  490000   0.75193477 -0.00021301728   0.44332553            0            0   0.44332553     1.118503    1.5618285   -5.7091612 
  495000   0.85299692 -0.00012987545   0.32690032            0            0   0.32690032    1.2688329    1.5957332   -2.8373488 
  500000   0.80349141 5.839457e-05   0.39749938            0            0   0.39749938    1.1951935    1.5926929    3.5858942 
  505000   0.80178793 -0.00013772787   0.40955782 0.00046129762            0   0.40909652    1.1926595    1.6022174   -3.0988938 
  510000    0.7997737 0.00016226523   0.40493704 0.0013519696            0   0.40358507    1.1896634    1.5946004    7.1332536 
  515000   0.82532294 3.7987394e-05   0.37034097 0.00089938232            0   0.36944159    1.2276679    1.5980088    2.8946452 
  520000    0.8297878 -6.820295e-06   0.37868977 6.1253686e-05            0   0.37862851    1.2343093    1.6129991    1.3801997 
  525000   0.89894067 6.7927247e-05   0.31954722            0            0   0.31954722    1.3371742    1.6567215    3.9753048 
  530000   0.82943767 7.1090005e-05     0.387916            0            0     0.387916    1.2337885    1.6217045    4.0482434 
  535000   0.80483014 -7.2257383e-05   0.42303539            0            0   0.42303539    1.1971848    1.6202202   -0.8461651 
  540000   0.82267291 -1.3359738e-05   0.39362544            0            0   0.39362544     1.223726    1.6173514     1.161339 
  545000   0.80784826 3.8054883e-05   0.39830306            0            0   0.39830306    1.2016743    1.5999773    2.8989174 
  550000   0.79799221 -0.00011228442   0.43411656 1.8136211e-05            0   0.43409843    1.1870134      1.62113   -2.2115116 
  555000   0.78173043 1.2378466e-05   0.46600323 0.0011202452            0   0.46488298     1.162824    1.6288272    2.0513456 
  560000   0.87360951 0.00010339103   0.33981963 0.0010282129            0   0.33879141    1.2994941    1.6393138    5.1683942 
  565000   0.83513798 -5.3241841e-06    0.4024637 0.0020231703            0   0.40044053    1.2422677    1.6447314    1.4629993 
  570000   0.83463483 0.00015670108   0.41726254 0.0024349858            0   0.41482755    1.2415193    1.6587818     7.007512 
  575000   0.82983254 -8.7476239e-05    0.4273962 0.0041749718            0   0.42322122    1.2343759    1.6617721   -1.3240835 
  580000   0.86067879 -4.4413769e-05   0.37404745  0.002304906            0   0.37174255    1.2802597    1.6543072   0.13831715 
  585000   0.82507318 -2.9790095e-06   0.44203342 0.0016720025            0   0.44036141    1.2272964    1.6693298    1.5676463 
  590000   0.84464937 -0.00010826664   0.42535086 0.0010473364            0   0.42430353    1.2564159    1.6817668   -2.0137346 
  595000   0.85072723 8.6719175e-05   0.42997105 0.00015003344            0   0.42982101    1.2654568    1.6954278    4.6554423 
  600000   0.85603248 -3.929857e-05   0.41526558 0.00028113882            0   0.41498444    1.2733483    1.6886139   0.34722272 
  605000    0.8543016 -1.8827459e-05   0.43337516 0.00018395384            0    0.4331912    1.2707736    1.7041488    1.0615049 
  610000   0.87492432 -0.00010266731   0.41368859 0.0002393814            0    0.4134492    1.3014499    1.7151385   -1.7892391 
  615000   0.88263218 0.00015984614   0.41990246 0.0020327953            0   0.41786967    1.3129154    1.7328178    7.1888995 
  620000     0.864577 -0.00022070039   0.44625714 0.0074210621            0   0.43883608    1.2860583    1.7323154   -5.8009245 
  625000   0.86020912 4.7673434e-05   0.45065104  0.007130284            0   0.44352076    1.2795611    1.7302121    3.3574653 
  630000   0.89916781 -0.00025287453   0.40782714 0.0037324261            0   0.40409471    1.3375121    1.7453393   -6.8861112 
  635000   0.92061454 2.5606067e-05   0.37759593  0.002668553            0   0.37492738    1.3694141    1.7470101    2.6210305 
  640000   0.85569284 7.1557928e-05   0.48757521 0.0008330962            0   0.48674212    1.2728431    1.7604183    4.2029289 
  645000   0.82793104 -0.0001600603    0.5240054 6.1544649e-05            0   0.52394385    1.2315474    1.7555528   -3.7078389 
  650000   0.85374681 6.9574659e-05   0.50562522            0            0   0.50562522    1.2699484    1.7755736    4.1503886 
  655000   0.87529074 -0.00021203919   0.47248911            0            0   0.47248911     1.301995    1.7744841   -5.4631203 
  660000   0.89433186 0.00012616251   0.45242148            0            0   0.45242148    1.3303186    1.7827401     6.089087 
  665000   0.93755727 -0.0001258593   0.36706233            0            0   0.36706233    1.3946164    1.7616788   -2.5343186 
  670000   0.87751097 2.7694187e-06   0.46416937            0            0   0.46416937    1.3052976    1.7694669    1.8639964 
  675000   0.84355151 -3.4292206e-06   0.53484664            0            0   0.53484664    1.2547829    1.7896295    1.6725788 
  680000   0.91130082 -7.3181199e-05   0.43338392 0.00051481057            0   0.43286911      1.35556    1.7889439  -0.70897437 
  685000   0.91807466 6.2811713e-05   0.41882276 0.00067823121            0   0.41814452    1.3656361    1.7844588    3.9284319 
  690000   0.91722353 7.503366e-06   0.41408941 0.00092020246            0   0.41316921      1.36437    1.7784594    2.0345743 
  695000   0.93993536 -5.1893999e-05   0.39540994 0.0069030566            0   0.38850688    1.3981538    1.7935638  0.022248608 
  700000   0.90040197 7.5360685e-06   0.47790489  0.013030754            0   0.46487414    1.3393479    1.8172528     2.074484 
  705000   0.92419671 -8.0054078e-05   0.44477825 0.0056575148            0   0.43912074    1.3747426    1.8195209  -0.91299166 
  710000   0.94064326 -8.8229622e-05   0.40282623 0.0017575635            0   0.40106867    1.3992068    1.8020331    -1.209538 
  715000   0.90507736 -1.4942833e-05   0.43217156 0.0055799156            0   0.42659164    1.3463026    1.7784741    1.2684254 
  720000   0.90527037 -7.2966604e-05    0.4523211  0.007240901            0    0.4450802    1.3465897    1.7989108  -0.69168263 
  725000   0.86622506 0.00014935504   0.52407956  0.022920479            0   0.50115908    1.2885098    1.8125893    6.9105748 
  730000   0.90971233 -7.2745184e-05   0.46059503 0.0075285614            0   0.45306647    1.3531971    1.8137921  -0.66924351 
  735000   0.96044002 -3.5019598e-05   0.38075476 0.0084800482            0   0.37227472    1.4286545    1.8094093   0.61407367 
  740000    0.9543372 0.00017165044   0.40089556 0.0038735166            0   0.39702204    1.4195766    1.8204721     7.679474 
  745000   0.91129303 -9.9162175e-05   0.47570863 3.7686209e-05            0   0.47567094    1.3555484     1.831257   -1.5534786 
  750000   0.94717253 0.00011277641   0.43418037            0            0   0.43418037    1.4089191    1.8430995    5.6925343 
  755000   0.96435473 5.4984327e-06    0.4203346            0            0    0.4203346    1.4344777    1.8548123    2.0424921 
  760000   0.98853006 -1.1846945e-05   0.38463197 7.5973951e-05            0     0.384556    1.4704385    1.8550704    1.4506947 
  765000    0.9631258 -5.2384461e-05   0.43321084 0.00022530523            0   0.43298553    1.4326496    1.8658605  0.077804176 
  770000   0.91598128 -0.00012335645   0.52271184 0.00010432726            0   0.52260751    1.3625222     1.885234   -2.3253328 
  775000   0.93832512 8.1568278e-05   0.49172783            0            0   0.49172783    1.3957586    1.8874865    4.6716837 
  780000   0.91741669 -0.00018987399   0.52715063 0.00016328141            0   0.52698734    1.3646573     1.891808   -4.5892243 
  785000   0.92433613 0.00023193333   0.50232576 0.0034816423            0   0.49884412      1.37495    1.8772758    9.7939333 
  790000   0.93585717 -7.2031077e-05   0.48206957 0.0057285651            0     0.476341    1.3920875    1.8741571  -0.58450364 
  795000   0.99399276 3.9909226e-05   0.39430188 0.0022104011            0   0.39209148    1.4785642    1.8728661     3.235101 
  800000   0.98620487 -5.0682669e-05   0.41234031  0.000109238            0   0.41223107    1.4669797    1.8793201    0.1493516 
  805000   0.98590624 2.1083686e-05   0.41764905 3.9408402e-06            0   0.41764511    1.4665355    1.8841846    2.6038411 
  810000    1.0359925 -9.2469008e-05   0.33797645 6.3549727e-06            0   0.33797009    1.5410388    1.8790152   -1.2772602 
  815000    1.0311512 3.844976e-06   0.37573564            0            0   0.37573564    1.5338373     1.909573    2.0408148 
  820000   0.98682114 6.4370414e-05   0.44387804            0            0   0.44387804    1.4678964    1.9117745    4.1089513 
  825000   0.98623471 1.3189403e-05   0.42929836            0            0   0.42929836    1.4670241    1.8963225    2.3465208 
  830000   0.99093693 5.7214016e-05   0.42593813 4.8732929e-06            0   0.42593325    1.4740187    1.8999568    3.8528619 
  835000   0.97545209 4.1267279e-05   0.45549988 0.00012929275            0   0.45537059     1.450985    1.9064849    3.3150747 
  840000   0.99850051 -1.0996703e-05   0.41672302 0.00016431124            0   0.41655871    1.4852695    1.9019925    1.5266384 
  845000   0.99824132 0.00027872345   0.44173479 6.7075535e-05            0   0.44166771     1.484884    1.9266188    11.440379 
  850000    1.0581463 1.8654366e-05   0.34954929 0.0025205231            0   0.34702877    1.5739926    1.9235419    2.5602776 
  855000   0.93023338 -2.9432864e-05   0.50829262  0.014281702            0   0.49401092    1.3837222    1.8920148   0.88737302 
  860000   0.96184249 -0.00014751331   0.47075692 0.0063260562            0   0.46443086    1.4307407    1.9014976   -3.1336234 
  865000   0.97149736 5.6067845e-05    0.4596817 0.0056815584            0   0.45400014    1.4451023     1.904784    3.8185665 
  870000    1.0073084 -7.7624879e-05    0.4056158 0.0075404857            0   0.39807531    1.4983713    1.9039871  -0.74560879 
  875000   0.97846578 -6.3240492e-05    0.4374038 0.0012943024            0    0.4361095    1.4554678    1.8928716  -0.26573713 
  880000    1.0319431 0.00010814136   0.36730097 0.0003247716            0    0.3669762    1.5350153    1.9023163    5.5935412 
  885000    1.0118693 -0.00023352957   0.39583746 0.00095490763            0   0.39488255    1.5051556    1.9009931   -6.0701497 
  890000      1.02444 0.00011991931   0.37238179 0.0032711614            0   0.36911063    1.5238544    1.8962362    5.9894821 
  895000   0.96426956 3.9414593e-05   0.45210487 0.0066418968            0   0.44546297     1.434351    1.8864558    3.2318073 
  900000    0.9491081 0.00012084563   0.49545331  0.018268819            0   0.47718449    1.4117983    1.9072516    6.0321158 
  905000   0.96001069 -6.8051472e-05   0.49250462 0.0077597129            0   0.48474491    1.4280159    1.9205205  -0.40230306 
  910000   0.98431669 0.00016739654   0.46130099 0.0014548409            0   0.45984615    1.4641711    1.9254721    7.6392739 
  915000   0.96948987 -0.00020801802   0.46996429 0.00045534613            0   0.46950895    1.4421162    1.9120805    -5.188268 
  920000   0.99739439 -8.35496e-05   0.41494052 0.0017459773            0   0.41319454    1.4836242    1.8985647  -0.95326168 
  925000    0.9398809 0.00013512417   0.48227991 0.0068268256            0   0.47545309    1.3980728    1.8803528    6.4925912 
  930000   0.94852742 -9.8695557e-05   0.47749116  0.011653456            0   0.46583771    1.4109345    1.8884257   -1.4803827 
  935000   0.96242033 8.4552836e-06   0.45250376 0.0062802631            0    0.4462235    1.4316002     1.884104     2.172711 
  940000   0.97281205 -0.00012362524   0.45644127 0.00038712639            0   0.45605415    1.4470579    1.9034992   -2.3162423 
  945000    1.0423795 0.0001121769   0.38874036  0.001075762            0    0.3876646    1.5505394    1.9392798    5.7682514 
  950000    0.9627807 -0.00012794337   0.50334371 0.0024393742            0   0.50090433    1.4321363      1.93548   -2.4316535 
  955000     1.027265 0.00018253374   0.41808452 0.0012474788            0   0.41683704    1.5280567    1.9461412    8.1766263 
  960000   0.99124919 -1.7997423e-05   0.46754557  0.001568269            0    0.4659773    1.4744832    1.9420287    1.3277167 
  965000    1.0462757 4.7681182e-05   0.40118717 0.0021747223            0   0.39901245    1.5563352    1.9575223      3.58504 
  970000   0.98194624 -0.00011474225   0.50983234 0.0015839421            0    0.5082484     1.460645    1.9704774   -1.9460582 
  975000   0.99058444 -0.00015365944   0.49399094 0.0018586971            0   0.49213224    1.4734944    1.9674853   -3.2774234 
  980000    1.0441353 9.4971473e-05    0.3929874 0.0044226335            0   0.38856477    1.5531512    1.9461386    5.1878316 
  985000   0.94300983 -0.00014408915   0.54728487 0.0019638649            0     0.545321    1.4027271     1.950012    -2.968231 
  990000   0.92246048 0.00015456144    0.5669843 0.0047085142            0   0.56227579      1.37216    1.9391443    7.2148414 
  995000    1.0582643 -0.00011054987   0.38769965 0.0058663589            0   0.38183329    1.5741682    1.9618678   -1.8115677 
 1000000    1.0248409 -4.7061975e-06   0.45381521 0.0016215218            0   0.45219369    1.5244509    1.9782661    1.8176279 
 1005000    1.0259457 -1.5624104e-05   0.45774879 0.00022565073            0   0.45752314    1.5260943    1.9838431    1.4505403 
 1010000    1.0006021 1.4045414e-05   0.50282337 0.0021858822            0   0.50063749    1.4883955    1.9912189    2.4706357 
 1015000    1.0038404 -8.5139864e-05   0.50746013  0.011841953            0   0.49561817    1.4932125    2.0006727   -0.9054347 
 1020000    1.0477795 -0.00018503536   0.44108694 0.0079730479            0    0.4331139     1.558572    1.9996589   -4.3162146 
 1025000    1.0923119 6.3703874e-05   0.38675384  0.018745943            0    0.3680079     1.624814    2.0115678    4.1859934 
 1030000    1.0503803 3.7613272e-06   0.43053074  0.044733554            0   0.38579718    1.5624408    1.9929715    2.1213581 
 1035000    1.0075155 5.3405264e-05   0.48661444 0.0092323952            0   0.47738205    1.4986793    1.9852938    3.8081935 
 1040000    1.0248317 0.00010061231   0.46421797 0.0015321678            0    0.4626858    1.5244371    1.9886551    5.4228885 
 1045000    1.0365961 0.00016182119   0.45801606 0.0002559778            0   0.45776008    1.5419367    1.9999528    7.5234494 
 1050000    1.0087428 -0.00014187183   0.51491684 0.0081902373            0    0.5067266     1.500505    2.0154218   -2.8271367 
 1055000    1.0728916  0.000158266   0.43365486  0.012543209            0   0.42111165    1.5959263    2.0295812    7.4317274 
 1060000    1.0893421 -9.203353e-05   0.41939559 0.0062721516            0   0.41312344    1.6203964     2.039792   -1.1016191 
 1065000     1.069448 -8.5625636e-06    0.4388374 0.0024142691            0   0.43642314    1.5908039    2.0296413    1.7373724 
 1070000   0.94892979 -4.8101411e-05   0.60760044  0.003994562            0   0.60360587    1.4115331    2.0191335     0.377272 
 1075000    1.0137207 -3.6034254e-05   0.49365355 0.0084672749            0   0.48518628    1.5079095     2.001563   0.77159382 
 1080000    1.0493075 -4.6200524e-05   0.43343015 0.0066089552            0   0.42682119    1.5608449     1.994275   0.41729711 
 1085000    1.0686187 3.1931736e-05   0.40096339   0.00272146            0   0.39824193    1.5895703    1.9905337    3.0804703 
 1090000    1.0337899 0.00016700075   0.43513451 0.00013672562            0   0.43499778    1.5377625     1.972897    7.6731894 
 1095000    1.0029527 -6.7078026e-05   0.47114416  0.002335436            0   0.46880872    1.4918922    1.9630363  -0.32656029 
 1100000   0.96898353 -5.4318181e-05   0.52808924 0.0034941962            0   0.52459504     1.441363    1.9694522   0.11539164 
 1105000    1.0055603 0.00015520563   0.47673082  0.001644354            0   0.47508647    1.4957709    1.9725017    7.2701874 
 1110000    0.9983513 8.8737443e-05   0.48528924 0.00045378708            0   0.48483546    1.4850476    1.9703368    4.9992415 
 1115000    1.0136535 -0.00017297532   0.48168496 0.0029512764            0   0.47873369    1.5078096    1.9894945   -3.9147298 
 1120000    1.0383523 -9.8541552e-05    0.4436878 0.0088993686            0   0.43478843    1.5445491    1.9882369   -1.3753148 
 1125000    1.0466559 -2.312095e-05   0.44136133  0.003082443            0   0.43827889    1.5569007    1.9982621    1.2090669 
 1130000    1.0206985 7.4857211e-05    0.4606489 0.0053301239            0   0.45531877    1.5182891     1.978938    4.5340641 
 1135000   0.99592394 -3.697259e-05   0.49245811  0.012158659            0   0.48029945    1.4814369     1.973895   0.71189722 
 1140000    1.0037154 2.5076045e-06    0.4709714 0.0079246209            0   0.46304678    1.4930267    1.9639981     2.049591 
 1145000   0.98939041 -4.572365e-05   0.48186591 0.00095083217            0   0.48091508    1.4717182    1.9535841   0.39288356 
 1150000    1.0038954 0.00014287595   0.47856276 0.0030468058            0   0.47551596    1.4932944    1.9718572    6.8486895 
 1155000    1.0667132 -6.5441936e-05   0.40060649 0.0038937948            0   0.39671269    1.5867358    1.9873423  -0.24640912 
 1160000    1.0265019 -0.00010984041   0.48964442 0.0070281568            0   0.48261626    1.5269216     2.016566   -1.7326533 
 1165000    1.0423403 -9.620568e-05   0.47162234 0.0076189294            0   0.46400341    1.5504812    2.0221035    -1.261717 
 1170000    1.0091265 -5.7501988e-06   0.51597129  0.014304292            0   0.50166699    1.5010757     2.017047    1.8207735 
 1175000   0.98565463 3.1354707e-05    0.5580335  0.023205688            0   0.53482782    1.4661613    2.0241948    3.0944354 
 1180000    1.0002646 -3.062658e-05   0.53352471 0.0094703174            0   0.52405439    1.4878936    2.0214183   0.97603107 
 1185000    1.0405886 -0.00015978442   0.48894895  0.016902892            0   0.47204606    1.5478755    2.0368244   -3.4171505 
 1190000    1.0549694 -4.8245756e-05   0.46579724  0.014473827            0   0.45132342     1.569267    2.0350642   0.38827579 
 1195000    1.0716595 5.4632568e-05    0.4430226 0.0014003852            0   0.44162221    1.5940935    2.0371161    3.9019078 
 1200000    1.0193542 -7.5905725e-05   0.52596274 0.00059960964            0   0.52536313    1.5162894    2.0422522  -0.54866324 
 1205000    1.0594874 8.6859032e-05   0.44200669 0.0047396274            0   0.43726707    1.5759875    2.0179941    4.9827824 
 1210000    1.0200219 0.00010917571    0.5259364 0.0086994455            0   0.51723696    1.5172826     2.043219    5.7697498 
 1215000    1.0535895 -0.00015885767   0.49686095  0.019200348            0    0.4776606    1.5672143    2.0640753   -3.3582665 
 1220000    1.0507692 5.1217669e-05   0.50409755  0.038655768            0   0.46544178    1.5630192    2.0671167    3.8153465 
 1225000   0.98006577 -0.00014792113   0.58757334 0.0051743265            0   0.58239902    1.4578478    2.0454212   -3.0036201 
 1230000   0.97639702 6.4794451e-05   0.57743192 0.0030832087            0   0.57434872    1.4523906    2.0298225    4.2414731 
 1235000   0.96575627 -2.4710028e-05   0.56977559  0.010801897            0   0.55897369    1.4365625     2.006338    1.1629024 
 1240000   0.93201528 0.00016680244   0.59138971  0.026601448            0   0.56478826    1.3863727    1.9777624    7.6712857 
 1245000   0.99845613 7.6155346e-05   0.52289759 0.0058155352            0   0.51708206    1.4852035    2.0081011    4.6075369 
 1250000   0.99828412 -3.0740802e-05   0.53863108            0            0   0.53863108    1.4849476    2.0235787   0.97429265 
 1255000    0.9787973 -0.0001600432   0.56931519            0            0   0.56931519     1.455961    2.0252762   -3.4375316 
 1260000    1.0573375 0.00018598561   0.45153048 0.0012244291            0   0.45030605    1.5727895      2.02432    8.3726288 
 1265000   0.98285697 -0.00025541358   0.57415858  0.013813574            0   0.56034501    1.4619997    2.0361583   -6.6819585 
 1270000    1.0171197 2.6166696e-05   0.50368372 0.0084595289            0   0.49522419    1.5129655    2.0166492    2.9098057 
 1275000    1.0370344 -3.5507964e-05   0.49912544  0.003251625            0   0.49587381    1.5425887    2.0417142   0.82970899 
 1280000     1.020603 0.00010578783    0.5268023 0.0028161861            0   0.52398612     1.518147    2.0449493    5.6558405 
 1285000     1.029865 4.842614e-06   0.51217753 0.0060994866            0   0.50607804    1.5319242    2.0441017    2.2093963 
 1290000   0.98254215 0.00011572099   0.58560502  0.010127761            0   0.57547726    1.4615315    2.0471365    5.9970797 
 1295000    1.0235517 0.00011836543    0.5317826  0.025671502            0    0.5061111    1.5225331    2.0543157    6.0945223 
 1300000    1.0317116 8.655199e-05   0.49447862   0.01213192            0    0.4823467    1.5346711    2.0291497    4.9834576 
 1305000    1.0218004 8.7046201e-05   0.50165673 0.0034134865            0   0.49824324    1.5199281    2.0215848    4.9927618 
 1310000   0.99941414 -4.0434054e-05   0.51309648  0.012389626            0   0.50070686    1.4866285     1.999725   0.61957596 
 1315000   0.95400095 0.00024888051   0.57961674   0.02859789            0   0.55101885    1.4190764    1.9986932    10.493815 
 1320000   0.93297298 -2.1429383e-05     0.611499  0.029566285            0   0.58193272    1.3877973    1.9992963      1.26784 
 1325000   0.98464001 0.00018017734   0.54437991 0.0074471949            0   0.53693271     1.464652    2.0090319     8.159085 
 1330000   0.93729421 -0.00015247941   0.61215288  0.025824099            0   0.58632878    1.3942251     2.006378   -3.1982526 
 1335000   0.99482111 4.6875034e-05   0.53297884  0.022172086            0   0.51080675    1.4797964    2.0127752    3.6127764 
 1340000    1.0041664 -8.9271091e-05   0.51571949  0.008448214            0   0.50727128    1.4936975     2.009417    -1.037703 
 1345000    1.0238538 0.00012235842   0.48886037 0.0083835097            0   0.48047686    1.5229825    2.0118429    6.1883436 
 1350000   0.98133099 -0.00010582272   0.56944141  0.015293461            0   0.55414795    1.4597298    2.0291713    -1.582911 
 1355000    1.0047656 -0.00013293286   0.55011611  0.010627032            0   0.53948907    1.4945888    2.0447049   -2.4927366 
 1360000   0.99824777 7.2945244e-06   0.54825648 0.0052380771            0   0.54301841    1.4848936      2.03315    2.2821365 
 1365000    1.0585907 1.1558711e-05   0.46449118  0.013796148            0   0.45069503    1.5746537    2.0391448    2.4336822 
 1370000   0.96013711 -0.00021308875   0.61470901 0.0035531494            0   0.61115586    1.4282039     2.042913   -5.2305163 
 1375000   0.98151486 -0.00014720585   0.58448859 4.1435468e-05            0   0.58444716    1.4600034     2.044492   -2.9801345 
 1380000   0.98734153 9.2864416e-05   0.55999958            0            0   0.55999958    1.4686705    2.0286701    5.1984422 
 1385000   0.95584602 -0.00023609957   0.60204555 0.00074143014            0   0.60130412     1.421821    2.0238665   -6.0349987 
 1390000   0.99747567 5.6134633e-05   0.55114273  0.041047935            0   0.51009479    1.4837451    2.0348878    3.9509499 
 1395000     1.012246 -3.9416542e-05   0.53367107  0.040619637            0   0.49305144    1.5057159    2.0393869   0.69396896 
 1400000    1.0045555 0.00011624671    0.5632049 0.0011128117            0   0.56209209    1.4942763    2.0574812    6.0253689 
 1405000     1.030671 -2.9787024e-05    0.5138551 0.00083829934            0    0.5130168     1.533123    2.0469781    1.0302477 
 1410000   0.97900501 9.3409343e-05   0.59377867 0.0018576515            0   0.59192102      1.45627    2.0500486    5.2384209 
 1415000    1.0097875 5.7268452e-05   0.53191388 0.0046749825            0    0.5272389    1.5020589    2.0339727    3.9887359 
 1420000    0.9662984 1.296943e-05   0.60067004 0.0057992842            0   0.59487075    1.4373689    2.0380389    2.4807288 
 1425000   0.98983443 0.00016665886   0.55965218  0.014807229            0   0.54484495    1.4723787    2.0320309    7.7206532 
 1430000   0.98544981 0.00010867198   0.54714567  0.035180096            0   0.51196558    1.4658566    2.0130023    5.7223393 
 1435000   0.97905217 1.5182557e-05   0.58011148  0.032881484            0      0.54723    1.4563401    2.0364516    2.5546828 
 1440000   0.99797422 0.00012881931   0.57544675  0.047582342            0    0.5278644    1.4844866    2.0599334    6.4569659 
 1445000    1.0605066 -0.0001370063   0.47970164  0.011905334            0   0.46779631    1.5775035    2.0572052   -2.6192767 
 1450000   0.99555973 -0.00029306488   0.56227425  0.024408913            0   0.53786533    1.4808951    2.0431693   -7.9601118 
 1455000   0.99567529 0.00012672043   0.55979121  0.022552248            0   0.53723896     1.481067    2.0408582    6.3662489 
 1460000    1.0381936 2.9818484e-05   0.47208399  0.014127556            0   0.45795643    1.5443129    2.0163969    3.0342011 
 1465000    1.0527956 -6.5830879e-05   0.48187608  0.017351674            0   0.46452441    1.5660334    2.0479095  -0.19911783 
 1470000    1.0355707 0.00014826315   0.52510933  0.020244555            0   0.50486477    1.5404115    2.0655208    7.1262364 
 1475000   0.99518025 -5.4449524e-05     0.598353 0.0017215568            0   0.59663144    1.4803306    2.0786836   0.22013985 
 1480000   0.99728348  0.000121466   0.56889812 0.0086462268            0   0.56025189    1.4834592    2.0523573    6.1983968 
 1485000    0.9737918 -5.9104933e-05   0.61277002  0.015866739            0   0.59690328    1.4485153    2.0612853  0.043836945 
 1490000   0.91004804 -0.00013527474   0.69959643 0.0038311871            0   0.69576524    1.3536965    2.0532929   -2.5640849 
 1495000   0.99627964 -3.4392466e-05   0.58550889 0.0019497451            0   0.58355914     1.481966    2.0674749   0.89354533 
 1500000    1.0281314  5.87627e-05   0.56733671 0.0068497024            0   0.56048701    1.5293454    2.0966821    4.1024489 
 1505000    1.0798709 -5.5786357e-05   0.49289839 0.0097432223            0   0.48315517    1.6063079    2.0992063     0.195032 
 1510000   0.97323758 0.00013068955   0.64418981  0.018686402            0   0.62550341    1.4476909    2.0918807    6.5527506 
 1515000    1.0067163 -6.1296424e-05   0.58672559  0.017971145            0   0.56875445    1.4974906    2.0842161 -0.0080351238 
 1520000    1.0447369 -4.8595388e-05   0.54136367 0.0047463721            0    0.5366173    1.5540462    2.0954099   0.43668729 
 1525000   0.97281736 -1.4455151e-05   0.61010189  0.013277956            0   0.59682393    1.4470658    2.0571677    1.5637652 
 1530000   0.99787075 -3.1768513e-05    0.5921181  0.020058944            0   0.57205915    1.4843327    2.0764508   0.99208558 
 1535000   0.95090678 -0.00012367847   0.65955101  0.028424276            0   0.63112674    1.4144738    2.0740248   -2.1475336 
 1540000   0.97622836 0.0001846791   0.60994566  0.013436839            0   0.59650882    1.4521397    2.0620854    8.3657985 
 1545000   0.96528267 -1.625882e-05   0.61546191   0.00526316            0   0.61019875     1.435858    2.0513199    1.4963522 
 1550000    1.0400811 6.2997507e-05   0.51405099 0.0017642108            0   0.51228678    1.5471207    2.0611717    4.2114866 
 1555000   0.99056757 -0.00017616819    0.5682558 0.0056303891            0   0.56262541    1.4734693    2.0417251   -3.9714825 
 1560000    1.0058974 -0.00012770618   0.54421548  0.011171377            0   0.53304411    1.4962724    2.0404879   -2.3185497 
 1565000   0.94194318 7.4846589e-05   0.63099814  0.015077403            0   0.61592074    1.4011405    2.0321386    4.5869022 
 1570000    1.0148039 -1.808767e-05   0.53138908  0.006790305            0   0.52459877    1.5095208    2.0409099    1.4235174 
 1575000    1.0025388 0.00014085366   0.56483699 0.0063320325            0   0.55850496    1.4912765    2.0561135    6.8639183 
 1580000    1.0130639 -5.5948908e-05   0.55388108   0.01213238            0    0.5417487    1.5069325    2.0608136   0.15109086 
 1585000    1.0213046 1.0068935e-05   0.54771745 0.0093636386            0   0.53835381    1.5191905     2.066908    2.4105943 
 1590000   0.95646832 2.8936539e-05   0.62208064  0.023047957            0   0.59903268    1.4227466    2.0448273    3.0325278 
 1595000    1.0074629 0.00013487625    0.5495398  0.010823549            0   0.53871625     1.498601    2.0481408    6.6519168 
 1600000   0.99386494 -7.5347877e-05   0.54435811  0.011137756            0   0.53322035    1.4783741    2.0227322  -0.54914199 
 1605000    1.0109978 3.3126872e-05   0.50354826 0.0079127265            0   0.49563553    1.5038592    2.0074075     3.138138 
 1610000   0.95716395 -6.2788662e-05   0.61153329  0.016190723            0   0.59534257    1.4237814    2.0353147  -0.10787168 
 1615000   0.96027103 -2.2008854e-05   0.60682833  0.010487056            0   0.59634128    1.4284032    2.0352315    1.2839959 
 1620000   0.99450588 -9.5009888e-05   0.57905411  0.016453777            0   0.56260033    1.4793275    2.0583816   -1.1846226 
 1625000    0.9418532 0.00010605503    0.6535602  0.015228586            0   0.63833161    1.4010066    2.0545668    5.6745785 
 1630000     1.024806 -0.00013676444   0.52247337  0.017579751            0   0.50489362     1.524399    2.0468724   -2.6213538 
 1635000   0.98954786 2.0338976e-05   0.55414012  0.014246709            0   0.53989341    1.4719524    2.0260926    2.7203296 
 1640000    0.9414949 -6.7756779e-05   0.59625561  0.002110514            0   0.59414509    1.4004737    1.9967293  -0.31603546 
 1645000   0.97300686 3.3512202e-06   0.54785523  0.003729702            0   0.54412553    1.4473477    1.9952029    2.1095912 
 1650000    1.0082511 -0.00012034909    0.5115327  0.017084243            0   0.49444846    1.4997735    2.0113062   -2.0966095 
 1655000   0.96402942 7.7444549e-05   0.57099301  0.022860131            0   0.54813288    1.4339938    2.0049868    4.6484274 
 1660000   0.95703066 6.7258304e-05   0.58669961 0.0063875303            0   0.58031208    1.4235831    2.0102827    4.3060328 
 1665000   0.97860283 -0.00013433964   0.54953248 0.0036187866            0    0.5459137    1.4556717    2.0052042   -2.5802554 
 1670000    0.9491513 -0.00019567311   0.56399964 0.0025639174            0   0.56143573    1.4118626    1.9758622   -4.7031133 
 1675000    1.0071973 -1.5084399e-05   0.50770769 0.0016500848            0    0.5060576    1.4982059    2.0059136    1.4910328 
 1680000    1.0495725 7.8220759e-05   0.46205283 0.0061793443            0   0.45587349    1.5612392     2.023292    4.6932272 
 1685000   0.95191662 0.00012097984   0.62825096 0.0034034221            0   0.62484754     1.415976    2.0442269    6.1736723 
 1690000   0.96510665 6.450565e-05   0.59809321 0.0022723739            0   0.59582084    1.4355961    2.0336894    4.2354822 
 1695000    1.0096139 4.6511813e-05   0.53640112  0.002750939            0   0.53365018    1.5018006    2.0382018     3.625805 
 1700000    1.0001456 -0.00022501033   0.53782993 0.0018176146            0   0.53601231    1.4877166    2.0255465   -5.6548062 
 1705000   0.93662036 2.6729908e-05   0.63493998 0.0012220059            0   0.63371797    1.3932228    2.0281628    2.9405436 
 1710000   0.96733111 -7.1893735e-05   0.58554356 0.00034119961            0   0.58520236     1.438905    2.0244486  -0.42952424 
 1715000   0.91281833 4.4480531e-05   0.64985915 0.0004181569            0     0.649441    1.3578173    2.0076764    3.5259452 
 1720000   0.96932996 -7.7167125e-05   0.55484522 0.0033046848            0   0.55154053    1.4418783    1.9967235  -0.63724766 
 1725000    1.0189399 0.00010975244   0.48836071 0.0066728081            0    0.4816879    1.5156731    2.0040339    5.7502505 
 1730000   0.92678971 5.1873298e-05    0.6188946 0.0087885038            0    0.6101061    1.3785997    1.9974943    3.7681029 
 1735000    1.0030218 4.3419379e-05   0.48078218  0.012289481            0    0.4684927     1.491995    1.9727772    3.4548253 
 1740000   0.91762115 -1.837859e-05    0.5995988  0.020251884            0   0.57934692    1.3649615    1.9645603    1.3372377 
 1745000   0.98813878 6.878614e-05    0.5121892 0.0096360936            0    0.5025531    1.4698564    1.9820456    4.3299459 
 1750000   0.93973642 5.1359349e-05   0.57058426 0.0099365783            0   0.56064768    1.3978579    1.9684422     3.721508 
 1755000   0.96620055 5.7060944e-05   0.54692959  0.014600304            0   0.53232929    1.4372233    1.9841529    3.9318331 
 1760000   0.96949098 -1.824201e-05   0.53473388  0.020433088            0   0.51430079    1.4421178    1.9768517    1.3541911 
 1765000   0.99266396 -8.2640152e-05   0.47264905  0.010312954            0    0.4623361    1.4765876    1.9492367  -0.87154716 
 1770000   0.91810615 0.00016924173    0.6093208 0.0047507409            0   0.60457005    1.3656829    1.9750037    7.7517881 
 1775000      0.88495 -2.168789e-05   0.65664642 0.0084464716            0   0.64819995    1.3163631    1.9730095    1.2327296 
 1780000   0.93945743 -3.629727e-05   0.56906355 0.0031967626            0   0.56586678    1.3974429    1.9665065   0.72755967 
 1785000   0.91875799 6.0173817e-05   0.60960127 0.0031976132            0   0.60640365    1.3666525    1.9762538    4.0301867 
 1790000   0.97653334 -0.0001078458   0.53749542 0.0066322519            0   0.53086316    1.4525933    1.9900888   -1.6910479 
 1795000    1.0024113 2.6150737e-05   0.50254923 0.0039194895            0   0.49862974    1.4910869    1.9936361     2.886248 
 1800000   0.96463982 0.00018063097   0.55353459 0.0044283599            0   0.54910623    1.4349017    1.9884363    8.1539733 
 1805000   0.89808012 -2.6734732e-06   0.63423669  0.013001553            0   0.62123514    1.3358942    1.9701309    1.8788763 
 1810000   0.93492603 -6.0331362e-05   0.58500656  0.028620754            0   0.55638581    1.3907025     1.975709 -0.083601454 
 1815000   0.85441721 -9.0586062e-05   0.69366193  0.015512445            0   0.67814948    1.2709456    1.9646075   -1.1273967 
 1820000   0.97729667 -0.00019448376   0.48706775 0.0082455917            0   0.47882216    1.4537288    1.9407965   -4.6975824 
 1825000   0.92264262 -2.5134001e-05   0.55885825  0.013455641            0   0.54540261    1.3724309    1.9312891    1.0733819 
 1830000   0.96939132 -7.3364055e-05   0.49306299  0.010531612            0   0.48253138    1.4419696    1.9350326  -0.56912714 
 1835000   0.92134912 -0.00018526499   0.57241232 0.0087168739            0   0.56369545    1.3705068    1.9429191   -4.3807926 
 1840000   0.94314316 0.00013670762   0.55134378 0.0095625288            0   0.54178126    1.4029254    1.9542692     6.620556 
 1845000   0.96665489 8.7386205e-05   0.51916605 0.0053656319            0   0.51380042    1.4378991    1.9570652    4.9398477 
 1850000   0.92845745 8.248465e-05   0.57368577  0.011557278            0   0.56212849    1.3810805    1.9547662    4.7702423 
 1855000   0.86185556 3.6952629e-05   0.67178276  0.019160567            0   0.65262219    1.2820101    1.9537929    3.2151093 
 1860000    0.9004503 -8.111487e-05   0.63430859 0.0085898765            0   0.62571872    1.3394198    1.9737284  -0.79499247 
 1865000   0.94509189 1.0656228e-05   0.55898671 0.0064426935            0   0.55254402    1.4058242    1.9648109    2.3285435 
 1870000   0.96876897 -1.5629559e-05   0.54364418 0.0091718871            0   0.53447229    1.4410438     1.984688    1.4511991 
 1875000    1.0102612 -5.4040728e-05   0.48559047  0.015531076            0   0.47005939    1.5027636    1.9883541   0.14376387 
 1880000   0.95487833 1.1219077e-05   0.57481009  0.010848598            0   0.56396149    1.4203815    1.9951916    2.3781361 
 1885000   0.89388614 -1.7508379e-05   0.66666522  0.026779329            0   0.63988589    1.3296556    1.9963209    1.3987015 
 1890000    1.0008115 -3.1682802e-05   0.51953259  0.018553057            0   0.50097953    1.4887071    2.0082396   0.92680001 
 1895000   0.98218324 0.00014603806   0.53857286  0.010491908            0   0.52808095    1.4609976    1.9995704    6.9843361 
 1900000   0.98899339 5.2633085e-05    0.5422564  0.012052813            0   0.53020359    1.4711277    2.0133841    3.8099267 
 1905000   0.98302198 -0.00012047863   0.55141322  0.012267324            0   0.53914589    1.4622452    2.0136584   -2.0986789 
 1910000   0.95385549 -6.9125677e-05    0.6062347  0.022348291            0   0.58388641      1.41886    2.0250947  -0.33439503 
 1915000   0.96377366 -2.1682658e-05   0.58889015  0.055111016            0   0.53377914    1.4336133    2.0225035    1.2824021 
 1920000   0.92665628 0.00014515961   0.64484333  0.018807885            0   0.62603544    1.3784012    2.0232445    6.9780261 
 1925000   0.95385379 4.3683574e-05   0.59926974  0.013984797            0   0.58528494    1.4188575    2.0181272    3.5091932 
 1930000    1.0235306 -4.4256713e-05   0.48919676 0.0091258008            0   0.48007096    1.5225017    2.0116985   0.50106931 
 1935000   0.90104643 -0.00011768854   0.68049848 0.0081354043            0   0.67236308    1.3403066    2.0208051   -1.9962971 
 1940000   0.95323079 -6.5423502e-05   0.60369276  0.016817932            0   0.58687483    1.4179308    2.0216236  -0.21149863 
 1945000   0.97790818 4.953092e-05   0.58116546  0.018676996            0   0.56248846    1.4546384    2.0358039    3.7264593 
 1950000   0.96750142 3.6959422e-05    0.6093291  0.010004008            0   0.59932509    1.4391584    2.0484875    3.3100357 
 1955000   0.98604659 6.0668997e-05   0.56809002 0.0084614856            0   0.55962853    1.4667443    2.0348343    4.1056694 
 1960000   0.94686408 3.4718368e-05   0.62065292  0.004507984            0   0.61614494    1.4084603    2.0291132    3.2141669 
 1965000   0.94841766 -7.0032413e-06   0.62328285 0.0080670921            0   0.61521576    1.4107713    2.0340541    1.7950102 
 1970000    1.0853649 0.00019466016   0.44627606 0.0097911746            0   0.43648489    1.6144804    2.0607564    8.7051565 
 1975000    1.0076851 -8.1395896e-05   0.56368569  0.012109142            0   0.55157654    1.4989316    2.0626173  -0.71569592 
 1980000   0.96348832 -0.00010988512   0.60558055  0.021553603            0   0.58402695    1.4331889    2.0387694    -1.711976 
 1985000   0.89852521 7.4557327e-05   0.68909692  0.012764924            0     0.676332    1.3365563    2.0256532    4.5705433 
 1990000   0.99117751 1.6820493e-05   0.57204718  0.020432282            0    0.5516149    1.4743765    2.0464237    2.6205632 
 1995000   0.98412827 -0.00015823645   0.55758818  0.026493827            0   0.53109435    1.4638908     2.021479   -3.3796586 
 2000000   0.99437511 2.5613831e-05   0.56147266  0.017800252            0   0.54367241     1.479133    2.0406056    2.9148911 
 2005000    1.0150816 -2.065147e-05   0.51238149   0.01144661            0   0.50093488    1.5099338    2.0223153    1.3174118 
 2010000   0.98996061 4.8926064e-05   0.55021681 0.0029855651            0   0.54723124    1.4725664    2.0227832    3.6927929 
 2015000   0.91600176 0.00024317093   0.69092461  0.017266398            0   0.67365821    1.3625526    2.0534772    10.353712 
 2020000   0.97008526 0.00011977268   0.61839439  0.040530058            0   0.57786433    1.4430018    2.0613962    6.1496372 
 2025000    1.0189147 -2.3520147e-05   0.55906384  0.035003313            0   0.52406052    1.5156356    2.0746994    1.2718784 
 2030000   0.99324278 2.6181997e-06   0.60753919   0.01125831            0   0.59628088    1.4774486    2.0849878    2.1743557 
 2035000   0.98123392 3.1572636e-05   0.62053411  0.024663974            0   0.59587014    1.4595855    2.0801196    3.1577989 
 2040000    0.9965045 0.00019410641   0.57737142  0.035640016            0   0.54173141    1.4823004    2.0596719    8.6851706 
 2045000    0.9801548 0.00018094901   0.58399629  0.019735346            0   0.56426094    1.4579803    2.0419766    8.2183696 
 2050000   0.99615202 8.4873116e-05    0.5737563 0.0065476158            0   0.56720869    1.4817761    2.0555324    4.9525348 
 2055000    1.0800237 -0.00014009236   0.46019265 0.0011557597            0   0.45903689    1.6065352    2.0667278   -2.7150914 
 2060000    1.0108607 -9.14744e-05   0.54872712 0.0030512486            0   0.54567587    1.5036554    2.0523825   -1.0699437 
 2065000    1.0646034 9.3924211e-05   0.47105953  0.012242697            0   0.45881684    1.5835975    2.0546571    5.2606035 
 2070000    1.0049434 -0.00016480711   0.58238943  0.011845021            0   0.57054441    1.4948533    2.0772427   -3.5481733 
 2075000    1.0487844 7.1240071e-05   0.48954652  0.017124001            0   0.47242252    1.5600668    2.0496134    4.4812744 
 2080000    1.0118276 4.7645449e-05   0.51696619 0.0089320797            0   0.50803411    1.5050935    2.0220597    3.6483577 
 2085000   0.96496068 2.2626737e-05   0.59609313 0.0010162529            0   0.59507688     1.435379    2.0314721    2.8037981 
 2090000     1.027781 -2.7397925e-05   0.47605819 0.0085517066            0   0.46750649    1.5288242    2.0048824    1.0696999 
 2095000   0.99541845 -8.078517e-05    0.5252026  0.038231778            0   0.48697082    1.4806849    2.0058875  -0.75157958 
 2100000    1.0415126 7.3923354e-05   0.46847717  0.029813705            0   0.43866347      1.54925    2.0177271    4.5409776 
 2105000    1.0293565 -3.2716323e-06   0.48540905  0.021444895            0   0.46396416    1.5311678    2.0165769    1.9049052 
 2110000   0.98963639 -4.8342766e-06   0.53695871  0.013018607            0    0.5239401    1.4720841    2.0090428    1.8440329 
 2115000    0.9754244 5.0820298e-05   0.56180782  0.005927818            0      0.55588    1.4509438    2.0127516    3.7474178 
 2120000    1.0398113 1.0922752e-05   0.47040807 0.0045620063            0   0.46584607    1.5467193    2.0171274    2.3899573 
 2125000    1.0077257 -9.4530922e-05   0.50843686  0.013517733            0   0.49491913     1.498992    2.0074289   -1.2192266 
 2130000    1.0098689 4.388895e-05   0.47912501  0.004215266            0   0.47490974    1.5021799    1.9813049    3.4793811 
 2135000    1.0205313 2.022861e-05   0.47632624 0.0077131455            0   0.46861309    1.5180403    1.9943665    2.6848364 
 2140000    1.0032953 -1.1910768e-05   0.49203006  0.012451149            0   0.47957891    1.4924018    1.9844318    1.5778776 
 2145000   0.97594367 3.1081909e-05   0.54281062 0.0053765653            0   0.53743406    1.4517162    1.9945268     3.055456 
 2150000     1.034524 -8.4428892e-05   0.48175132 0.0019599196            0    0.4797914    1.5388545    2.0206058  -0.86123372 
 2155000    1.0176493 -0.00013729774   0.49322871 0.0041463769            0   0.48908233    1.5137534    2.0069821   -2.6794475 
 2160000   0.96569865 2.6118636e-05   0.54472829 0.0036395218            0   0.54108876    1.4364767     1.981205    2.8727211 
 2165000    1.0681484 -6.5827889e-05   0.40742317  0.005724488            0   0.40169868    1.5888708     1.996294  -0.25063134 
 2170000    0.9863046 -5.0270702e-05   0.50926538  0.011539377            0     0.497726    1.4671281    1.9763935   0.26048684 
 2175000   0.98982145 6.9628298e-05   0.50479891 0.0088166141            0   0.49598229    1.4723594    1.9771583    4.3538042 
 2180000   0.99248242 -0.00016487316   0.50375175  0.010331944            0    0.4934198    1.4763176    1.9800693   -3.6476011 
 2185000    1.0061815 -7.0013067e-05   0.51371476  0.016000398            0   0.49771436    1.4966949    2.0104097  -0.37936965 
 2190000    1.0933195 7.6605574e-05    0.4063794 0.0080920852            0   0.39828732    1.6263128    2.0326922    4.6474958 
 2195000   0.99596567 7.4172896e-05   0.57149847  0.010503571            0    0.5609949    1.4814989    2.0529974    4.5847656 
 2200000    1.0460777 0.00016028743   0.51363078  0.033690854            0   0.47993992    1.5560406    2.0696713    7.5408156 
 2205000    1.0167354 2.3903907e-05   0.56329773  0.041438069            0   0.52185967     1.512394    2.0756917    2.8916117 
 2210000    1.0908875 -4.8363387e-05   0.48662643  0.022467461            0   0.46415897    1.6226952    2.1093216     0.458518 
 2215000    1.0551996 5.031535e-05   0.53010123  0.016943872            0   0.51315735    1.5696094    2.0997107    3.8171413 
 2220000    1.0610151 -1.1775804e-06    0.5139973  0.010497982            0   0.50349931      1.57826    2.0922573    2.0520626 
 2225000    1.0689002 -4.6447152e-05   0.51099327  0.015040395            0   0.49595287     1.589989    2.1009823   0.51558618 
 2230000    1.0016188 6.9474043e-05   0.60812265  0.011244206            0   0.59687845    1.4899079    2.0980305    4.4694112 
 2235000    1.0787168 9.9263239e-05   0.49129833 0.0046287763            0   0.48666955    1.6045912    2.0958895    5.4840748 
 2240000    1.0391001 -4.5257021e-05    0.5475076  0.020616387            0   0.52689122    1.5456614     2.093169   0.54839603 
 2245000    1.0947199 -2.9283502e-05   0.47203262  0.035572745            0   0.43645988    1.6283958    2.1004284    1.1008849 
 2250000    1.0477061 -3.2996511e-05   0.53871914  0.026835129            0   0.51188401    1.5584628     2.097182   0.97090107 
 2255000    1.0818063 -4.8402682e-05   0.50824184  0.036674724            0   0.47156712    1.6091869    2.1174288    0.4652839 
 2260000    1.0625804 3.5405749e-05   0.50653739  0.016240274            0   0.49029711    1.5805883    2.0871257    3.2956419 
 2265000   0.99870153 4.0409357e-05   0.58296483   0.01903648            0   0.56392835    1.4855685    2.0685334    3.4478394 
 2270000    1.0090537 0.00011438061   0.54265042  0.027745751            0   0.51490467    1.5009674    2.0436179    5.9478093 
 2275000    1.0530216 4.0589265e-05   0.51157502    0.0199243            0   0.49165072    1.5663696    2.0779446    3.4633915 
 2280000    1.1093568 -3.7289847e-05   0.40835497   0.01032983            0   0.39802514    1.6501682    2.0585232   0.78569637 
 2285000    1.0128177 4.8252367e-05   0.52275113  0.014892848            0   0.50785828    1.5065663    2.0293175    3.6763316 
 2290000    1.0505095 -4.5480062e-05   0.47650067 0.0098267138            0   0.46667396    1.5626329    2.0391336   0.48674748 
 2295000      1.06933 -6.4151068e-05   0.42987916 0.0093371331            0   0.42054202    1.5906284    2.0205075  -0.16918227 
 2300000    1.0493413 8.4427815e-05   0.47896461 0.0099006264            0   0.46906398    1.5608952    2.0398598    4.9216625 
 2305000     1.016162 7.961512e-05   0.52029093 0.0042634708            0   0.51602746     1.511541    2.0318319    4.7493614 
 2310000    1.0144717 -5.8051172e-05   0.52219709  0.012154871            0   0.51004222    1.5090266    2.0312237  0.049743682 
 2315000    1.0252441 -0.00011649781   0.50555933  0.033787952            0   0.47177138    1.5250506    2.0306099   -1.9458486 
 2320000    1.0398609 8.9078328e-06   0.47710916   0.01842418            0   0.45868498     1.546793    2.0239022    2.3279562 
 2325000   0.95163792 -6.7101116e-06   0.61401459  0.031238424            0   0.58277616    1.4155614     2.029576    1.8005375 
 2330000    1.0059753 0.00013409576   0.51465554  0.019022312            0   0.49563323    1.4963882    2.0110437    6.5881789 
 2335000    1.0826127 1.8796976e-05   0.40921951  0.010135005            0    0.3990845    1.6103864    2.0196059    2.6612093 
 2340000   0.95574931 -0.00028671453   0.58592411  0.019954996            0   0.56596912    1.4216771    2.0076012   -7.7789215 
 2345000   0.96674762 -8.8944534e-05   0.55233916  0.013272681            0   0.53906648    1.4380371    1.9903762   -1.0455972 
 2350000   0.96274685 4.8215611e-05   0.55331639  0.010663506            0   0.54265288    1.4320859    1.9854023    3.6311619 
 2355000   0.96244952 2.1779458e-06   0.54748546  0.030365823            0   0.51711964    1.4316437    1.9791291    2.0534697 
 2360000   0.98509058 5.9828733e-05   0.50879322  0.021337103            0   0.48745611    1.4653222    1.9741155    4.0162695 
 2365000   0.99467901 -8.953245e-05   0.48609002  0.008675455            0   0.47741457     1.479585     1.965675   -1.0903659 
 2370000    0.9546423 -4.6995666e-05   0.52449809 0.0055048302            0   0.51899326    1.4200304    1.9445285   0.34040976 
 2375000   0.95584388 3.2354959e-05   0.51213248  0.007319948            0   0.50481253    1.4218178    1.9339502    3.0383329 
 2380000     1.008642 1.021264e-05   0.43849622  0.018709596            0   0.41978662    1.5003549    1.9388512    2.2874426 
 2385000   0.98142742 3.2078747e-05   0.46903296  0.013476094            0   0.45555686    1.4598733    1.9289063    3.0238608 
 2390000   0.97277585 -2.84949e-05   0.49008728  0.010880717            0   0.47920656    1.4470041    1.9370914   0.96446544 
 2395000   0.93355239 3.8892576e-05   0.54471983  0.010317006            0   0.53440283    1.3886592     1.933379    3.2609123 
 2400000   0.96641933 0.00017525479   0.48207749   0.02558872            0   0.45648877    1.4375488    1.9196262    7.9016563 
 2405000   0.98402929 0.00012541833   0.45191066  0.025453295            0   0.42645737    1.4637436    1.9156542    6.1965999 
 2410000    0.9488089 7.3746447e-05   0.50172441   0.02297382            0   0.47875059    1.4113532    1.9130776    4.4302897 
 2415000    0.9922629 -2.5311275e-05   0.41513722  0.026982911            0   0.38815431    1.4759911    1.8911283    1.0271701 
 2420000   0.94180035 -7.7711624e-05   0.50925474  0.015288739            0     0.493966     1.400928    1.9101828    -0.742374 
 2425000   0.99096655 -4.6882576e-05   0.46292435 0.0055406396            0   0.45738371    1.4740627    1.9369871   0.33672851 
 2430000   0.94367405 -9.1932774e-05   0.52424092  0.020133601            0   0.50410732    1.4037152    1.9279561    -1.210016 
 2435000   0.96101062 -0.00014151167   0.47378667 0.0044496992            0   0.46933697    1.4295033      1.90329    -2.926975 
 2440000   0.98121154 -4.0345588e-05   0.43454173 6.9355589e-05            0   0.43447237    1.4595522    1.8940939    0.5169645 
 2445000   0.95297503 0.00018331766   0.46499837 0.00092332193            0   0.46407504    1.4175504    1.8825487    8.1397916 
 2450000   0.96039112 5.3896153e-05    0.4867994 0.0079111623            0   0.47888824    1.4285818    1.9153812    3.7550366 
 2455000   0.95832423 7.5832477e-05   0.48279715  0.023655612            0   0.45914154    1.4255073    1.9083044    4.4967197 
 2460000   0.94043047 -6.1515953e-05   0.51403999  0.026153784            0   0.48788621    1.3988903    1.9129303  -0.18681421 
 2465000   0.99630151 -5.3869248e-05   0.44917269 0.0086873688            0   0.44048532    1.4819985    1.9311712  0.092434169 
 2470000   0.98501785 1.1832692e-05     0.467208 0.0099226292            0   0.45728537     1.465214    1.9324221    2.3363113 
 2475000   0.94746092 5.5732842e-05    0.5168894  0.013180307            0   0.50370909    1.4093481    1.9262375    3.8285852 
 2480000   0.95472884 -3.0316136e-05   0.49991923  0.023990056            0   0.47592918    1.4201592    1.9200784    0.8852876 
 2485000   0.99114437 -0.00012510837   0.45419811  0.041135047            0   0.41306306    1.4743272    1.9285254   -2.3418405 
 2490000   0.95544101 -4.3691248e-06   0.52078799  0.039856667            0   0.48093133    1.4212185    1.9420065    1.7928737 
 2495000   0.91934469 -0.00014182992   0.57470649  0.034270636            0   0.54043586    1.3675252    1.9422317   -2.8988963 
 2500000   0.99302997 6.816054e-05   0.45843601   0.04357325            0   0.41486276    1.4771321    1.9355681    4.2621145 
 2505000   0.94239513 5.2505099e-05   0.51931461  0.037985381            0   0.48132923    1.4018128    1.9211274    3.7133014 
 2510000    1.0427092 3.9605758e-05   0.38719712  0.011365066            0   0.37583206      1.55103    1.9382271    3.2901037 
 2515000   0.98386592 -5.1566879e-05   0.48980646 0.0028626524            0   0.48694381    1.4635006     1.953307   0.19315753 
 2520000    1.0105551 -0.00014693701   0.44634914 0.0042401299            0   0.44210901    1.5032007    1.9495498   -3.0659002 
 2525000   0.94571377 1.875124e-05    0.5342759  0.031787901            0     0.502488    1.4067492    1.9410251    2.5810675 
 2530000   0.97859381 -4.427631e-05   0.48469603  0.024921302            0   0.45977473    1.4556583    1.9403543   0.42905627 
 2535000   0.99864325 6.5997083e-05   0.46027923  0.012015465            0   0.44826376    1.4854818    1.9457611    4.1984615 
 2540000    0.9358041 4.7993952e-08   0.53528777  0.054106029            0   0.48118174    1.3920086    1.9272964    1.9289346 
 2545000   0.95924836 -3.7534689e-05   0.49195728  0.011696759            0   0.48026052    1.4268819    1.9188392   0.63765517 
 2550000   0.95354801 0.0001399985   0.52285001 0.0062275549            0   0.51662245    1.4184027    1.9412527    6.7198682 
 2555000    1.0153115 5.8329502e-05   0.42988988 0.0086589932            0   0.42123088    1.5102759    1.9401658    3.9311461 
 2560000   0.93988077 -4.0999407e-05   0.54852748  0.021912025            0   0.52661545    1.3980726    1.9466001    0.5471537 
 2565000    0.9796421 -9.509603e-05   0.51334608  0.043613285            0    0.4697328    1.4572176    1.9705637   -1.2753808 
 2570000   0.97076897 -9.0068139e-05   0.53006235  0.024898886            0   0.50516346    1.4440188    1.9740812   -1.1002446 
 2575000    1.0344118 -4.720206e-05   0.43944645 0.0082639531            0    0.4311825    1.5386875    1.9781339   0.36697029 
 2580000    1.0050107 5.0818805e-05   0.49999432  0.009370559            0   0.49062376    1.4949534    1.9949477    3.7295629 
 2585000    1.0660536 0.00010271479   0.41770111 0.0064665709            0   0.41123454    1.5857548    2.0034559    5.5094541 
 2590000    1.0258918 -5.9620293e-05   0.47366898  0.012107022            0   0.46156195    1.5260141     1.999683  -0.03535631 
 2595000    1.0403399 2.8189431e-05   0.47278933  0.018640744            0   0.45414859    1.5475056     2.020295    2.9824942 
 2600000    1.0549431 0.00013345376   0.46897915  0.050705605            0   0.41827355    1.5692279    2.0382071    6.5934289 
 2605000    1.0023854 -0.00013114561   0.55056375  0.048230193            0   0.50233355    1.4910483     2.041612   -2.4348249 
 2610000   0.99965644 -0.00019479845   0.54559217  0.032870115            0   0.51272206     1.486989    2.0325811   -4.6165393 
 2615000    1.0426737 2.1609897e-05   0.51194642  0.019952049            0   0.49199438    1.5509772    2.0629236    2.8005414 
 2620000    1.0813192 2.0475442e-05   0.44093858  0.017179716            0   0.42375887    1.6084623    2.0494009     2.748296 
 2625000    1.0741597 1.7947872e-05   0.46564199  0.013778366            0   0.45186362    1.5978125    2.0634545    2.6760752 
 2630000    1.0003931 -9.3121075e-05   0.54861434  0.004758266            0   0.54385608    1.4880848    2.0366991   -1.1418336 
 2635000    1.0722788 -0.00011104811   0.43717356  0.005801883            0   0.43137168    1.5950148    2.0321883   -1.7582538 
 2640000    1.0164302 5.3582458e-06   0.50349505  0.037503895            0   0.46599115      1.51194     2.015435    2.1983298 
 2645000    1.0161635 9.8300566e-06   0.51142056  0.023489922            0   0.48793064    1.5115432    2.0229637    2.3584963 
 2650000    1.0737207 3.660932e-05   0.42927319 0.0047072926            0    0.4245659    1.5971596    2.0264328    3.2760309 
 2655000    1.0065083 3.4976212e-06   0.51675832 0.0037661419            0   0.51299218    1.4971811    2.0139394    2.1333249 
 2660000    1.0401513 -3.4843159e-05   0.47365817  0.025472462            0   0.44818571     1.547225    2.0208832      0.83157 
 2665000    1.0258085 8.6990397e-05   0.51324212  0.031804457            0   0.48143767    1.5258901    2.0391322    5.0084044 
 2670000    1.0125199 6.0498678e-05   0.50618555  0.040501681            0   0.46568387    1.5061233    2.0123089    4.0773304 
 2675000    1.0247683 -8.1438015e-06   0.49522811  0.038337864            0   0.45689025    1.5243429     2.019571    1.7415959 
 2680000    1.0264393 6.5131583e-05   0.50599155  0.041532839            0   0.46445871    1.5268285      2.03282    4.2559781 
 2685000    1.0335851 3.6245002e-05   0.47973766 0.0095307282            0   0.47020693    1.5374578    2.0171954    3.2543582 
 2690000    1.0256139 -2.0883786e-05    0.4868813 0.0028655555            0   0.48401574    1.5256007     2.012482    1.2996488 
 2695000    1.0018428 1.8177246e-06   0.51987215 0.0023428069            0   0.51752934    1.4902411    2.0101133    2.0721583 
 2700000    1.0285989 6.0380805e-06   0.48678339 0.0058644339            0   0.48091896    1.5300408    2.0168242     2.222924 
 2705000    1.0218294 7.7160188e-05   0.49169403  0.011227831            0    0.4804662    1.5199713    2.0116653    4.6453997 
 2710000    1.0620612 0.00012024506   0.43702366 0.0052132481            0   0.43181041     1.579816    2.0168397    6.1212044 
 2715000    1.0716267 -2.8249135e-05   0.44222874 0.0039428191            0   0.43828592    1.5940447    2.0362735    1.0720363 
 2720000     1.063898 -0.00014193424   0.45830147 0.0026554949            0   0.45564598    1.5825483    2.0408498   -2.8038389 
 2725000     1.034865 -6.158839e-05   0.49425454  0.028662476            0   0.46559206    1.5393617    2.0336162 -0.068600837 
 2730000    1.0557424 -6.7608267e-05   0.47385529  0.015697159            0   0.45815814    1.5704168    2.0442721  -0.26342342 
 2735000    1.0487672 -0.00019220688   0.48810704 0.00075360451            0   0.48735344    1.5600413    2.0481483   -4.5125133 
 2740000    1.0730143 -7.2477525e-07   0.43345263 0.0083150226            0    0.4251376    1.5961087    2.0295614    2.0048224 
 2745000    1.0281607 0.00016705906   0.49674273  0.018723752            0   0.47801897     1.529389    2.0261317    7.7284144 
 2750000    1.0897013 4.4710985e-06   0.43478632 0.0096780197            0    0.4251083    1.6209306     2.055717    2.2083305 
 2755000    1.0245723 -0.00020723486   0.52106223  0.027871068            0   0.49319116    1.5240512    2.0451135    -5.028503 
 2760000    1.0681832 -0.00016335553   0.42683986   0.01905119            0   0.40778867    1.5889225    2.0157624   -3.5601064 
 2765000    1.0864559 1.2472456e-05    0.3951101 0.0083508827            0   0.38675922    1.6161032    2.0112133    2.4369398 
 2770000    1.0121516 9.0182425e-05   0.48884001  0.029700717            0    0.4591393    1.5055755    1.9944155    5.0726422 
 2775000   0.98949838 4.8306069e-05   0.50293927  0.077987554            0   0.42495171    1.4718788    1.9748181    3.6236653 
 2780000    1.0071623 7.6334429e-05   0.47766752  0.032920135            0   0.44474738     1.498154    1.9758215      4.58137 
 2785000   0.96687244 3.9628634e-05   0.54497873  0.021778171            0   0.52320056    1.4382228    1.9832015    3.3358589 
 2790000    1.0204622 -0.00010307888   0.46071689  0.010705961            0   0.45001093    1.5179375    1.9786544   -1.5397714 
 2795000   0.97438692 -4.3588194e-05     0.525963  0.027856652            0   0.49810635    1.4494005    1.9753635   0.48755321 
 2800000    1.0366106 4.0975729e-05   0.44688797 0.0083179103            0   0.43857006    1.5419582    1.9888462    3.3874844 
 2805000   0.96207324 -4.8232539e-05   0.56237209  0.029642821            0   0.53272927    1.4310839     1.993456   0.34711872 
 2810000   0.93756674 -0.00010225136   0.57630771   0.03947117            0   0.53683654    1.3946305    1.9709382   -1.5192414 
 2815000    1.0124814 5.0086168e-05   0.48029793  0.023892042            0   0.45640589    1.5060661     1.986364    3.6959719 
 2820000    1.0310646 4.6276354e-05   0.46860427  0.011983636            0   0.45662064    1.5337086    2.0023129    3.5818791 
 2825000    1.0331157 -4.3022326e-05   0.45723155 0.0073434076            0   0.44988814    1.5367596    1.9939912   0.52549579 
 2830000    1.0676531 -0.00010849675   0.41958844 0.0039375006            0   0.41565094    1.5881339    2.0077224   -1.6956335 
 2835000    1.0252349 -7.904032e-05   0.48464855 0.00058194274            0   0.48406661    1.5250369    2.0096854  -0.68822413 
 2840000   0.99631935 3.589426e-06   0.51566676  0.006594708            0   0.50907206     1.482025    1.9976918    2.1202109 
 2845000    1.0277848 -4.5289763e-05   0.45357514  0.010673205            0   0.44290193    1.5288299    1.9824051   0.43651449 
 2850000    1.0079948 -3.2559689e-05   0.48306574  0.022758757            0   0.46030698    1.4993923     1.982458   0.87108731 
 2855000     1.009757 -4.0413722e-05   0.47348239  0.012317231            0   0.46116516    1.5020135    1.9754959   0.59604089 
 2860000    1.0802716 0.00015477478   0.37273838  0.012137985            0   0.36060039     1.606904    1.9796423    7.2626216 
 2865000   0.99819596 -4.9088433e-06   0.48199428  0.022325221            0   0.45966906    1.4848165    1.9668108    1.7992556 
 2870000    1.0043955 -0.00014385549   0.49058304  0.014376416            0   0.47620662    1.4940384    1.9846214    -2.925646 
 2875000     1.012392 2.5481241e-05   0.48538821 0.0061942284            0   0.47919399    1.5059331    1.9913213     2.861081 
 2880000    0.9905366 7.2176903e-05   0.49229278 0.0058006959            0   0.48649209    1.4734232     1.965716    4.4293543 
 2885000   0.97269474 9.4878286e-05   0.50611267  0.014490202            0   0.49162247    1.4468834    1.9529961    5.1915083 
 2890000   0.92857626 -8.8200872e-06   0.56819782  0.033041639            0   0.53515618    1.3812572     1.949455     1.648396 
 2895000    0.9694342 -7.1154174e-05   0.51115698  0.014879727            0   0.49627725    1.4420334    1.9531904  -0.47553879 
 2900000    1.0471795 -4.8397219e-05   0.40744805  0.006868275            0   0.40057978    1.5576795    1.9651276   0.31316914 
 2905000    1.0093616 -1.1873566e-05   0.46183915 0.0086401367            0   0.45319901    1.5014254    1.9632646    1.5579802 
 2910000    1.0338072 2.8496599e-05   0.43988818  0.026217046            0   0.41367113    1.5377882    1.9776763    2.9503603 
 2915000    0.9695393 2.662621e-05    0.5336457  0.038376684            0   0.49526901    1.4421897    1.9758354    2.8846767 
 2920000   0.96643083 -0.00012535182   0.52519626 0.0095519232            0   0.51564433    1.4375659    1.9627621   -2.3159134 
 2925000   0.95953228 -2.5186794e-05   0.55677298  0.033544409            0   0.52322857    1.4273043    1.9840772     1.124368 
 2930000    1.0278722 4.4719785e-05   0.44109487  0.013413598            0   0.42768127    1.5289599    1.9700548    3.4964901 
 2935000   0.98659971 0.00011992743   0.49184146  0.024119604            0   0.46772185    1.4675671    1.9594085    6.0529314 
 2940000   0.97384835 9.0603154e-05   0.52413391  0.040146527            0   0.48398738    1.4485994    1.9727333     5.065321 
 2945000    0.9805197 6.5863328e-05   0.51148489   0.04092492            0   0.47055997    1.4585231     1.970008    4.2181429 
 2950000    0.9858213 3.5926066e-05   0.47652546  0.030114463            0     0.446411    1.4664092    1.9429347     3.169211 
 2955000   0.99348968 1.9324102e-05   0.44685759 0.0059361747            0   0.44092142    1.4778159    1.9246735    2.5842695 
 2960000    1.0177978 1.2134652e-05   0.39329368 0.0056515526            0   0.38764212    1.5139742    1.9072679     2.321464 
 2965000   0.94544354 4.1468001e-05    0.4893261   0.02056522            0   0.46876088    1.4063473    1.8956734    3.3111144 
 2970000    0.9793626 -3.4482074e-05   0.43562538 0.0032919923            0   0.43233339    1.4568019    1.8924272   0.71543911 
 2975000   0.96227815 5.4078489e-06   0.46642025 0.0058646219            0   0.46055563    1.4313887     1.897809    2.0823969 
 2980000   0.97333072 9.5452706e-05    0.4673143  0.026151787            0   0.44116251    1.4478294    1.9151437    5.1732628 
 2985000   0.92211733 6.8864852e-05   0.54475696  0.060760087            0   0.48399687    1.3716495    1.9164065    4.2669934 
 2990000   0.96445387 9.5750984e-05   0.47761837  0.023850318            0   0.45376806    1.4346251    1.9122435    5.1805438 
 2995000    1.0019898 8.524238e-05   0.42268646  0.026449658            0   0.39623681    1.4904598    1.9131463    4.8227529 
[...]
19285000    1.0492724 -6.6456484e-05   0.43895022  0.053154262            0   0.38579596    1.5607927    1.9997429  -0.26863841 
19290000   0.99071051 -9.5271226e-05   0.51106147  0.039874615            0   0.47118686    1.4736819    1.9847434   -1.2671812 
19295000    0.9246801 -4.2452543e-05    0.5935926  0.098233042            0   0.49535955    1.3754617    1.9690542   0.52000746 
19300000    1.0341321 0.00021960636   0.46075634   0.03942397            0   0.42133237    1.5382716    1.9990279    9.4949251 
19305000     1.031727 0.00031721301   0.48943049  0.037777401            0   0.45165309     1.534694    2.0241245    12.851662 
19310000     1.005441 1.1810049e-05   0.54003701  0.025811757            0   0.51422525    1.4955934    2.0356304    2.4387468 
19315000    1.0743874 -4.869998e-05   0.46525355   0.01233118            0   0.45292237    1.5981512    2.0634048   0.40111212 
19320000     1.099096 0.0001233996   0.44471935  0.016532489            0   0.42818686    1.6349053    2.0796246    6.2916644 
19325000    1.0539047 8.3130302e-06   0.53527421  0.043557881            0   0.49171633    1.5676832    2.1029574    2.3867089 
19330000    1.1337064 -1.1878094e-05   0.41143282  0.012157531            0   0.39927529    1.6863883    2.0978211    1.6923822 
19335000    1.1045987 7.9286634e-05   0.45918921 0.0081268905            0   0.45106232    1.6430906    2.1022798    4.8085969 
19340000    1.0653989 1.3332532e-05   0.51903001  0.019770959            0   0.49925905    1.5847808    2.1038108    2.5588946 
19345000    1.1304005 -2.9070321e-06   0.42180001  0.045331922            0   0.37646809    1.6814708    2.1032708    2.0040441 
19350000    1.0555676 -7.3364584e-05   0.51391482  0.027126845            0   0.48678798    1.5701568    2.0840716  -0.42010622 
19355000    1.0509166 -6.6055767e-05    0.5217374  0.021561855            0   0.50017555    1.5632385    2.0849759  -0.16972764 
19360000    1.0814318 4.9131352e-05   0.47496054  0.017604366            0   0.45735617    1.6086298    2.0835903    3.7606072 
19365000    1.0983966 2.9668475e-05   0.46935229  0.021927964            0   0.44742433     1.633865    2.1032173    3.1159012 
19370000    1.1046555 7.307984e-05    0.4743549  0.020293816            0   0.45406108    1.6431751      2.11753    4.6119885 
19375000    1.0993296 1.8526874e-05    0.4900197  0.018454947            0   0.47156475    1.6352528    2.1252725    2.7576565 
19380000    1.1225135 -0.00017899904   0.47649366  0.012211626            0   0.46428203    1.6697389    2.1462325   -3.9636012 
19385000     1.126904 -8.3313531e-05   0.46535388  0.023616894            0   0.44173698    1.6762698    2.1416236   -0.7021449 
19390000     1.146998 0.0001030476   0.44597373  0.026130565            0   0.41984317    1.7061595    2.1521332    5.6694913 
19395000    1.1467969 0.00011553797   0.45679307  0.035758539            0   0.42103454    1.7058603    2.1626534    6.1063495 
19400000    1.0633369 8.1581492e-05   0.56669049  0.033528428            0   0.53316206    1.5817137    2.1484042    4.9330524 
19405000    1.0312244 7.9206641e-05   0.58406715  0.042808194            0   0.54125896    1.5339463    2.1180135    4.8216002 
19410000    1.0889399 5.5887818e-05   0.49376006  0.011449582            0   0.48231047    1.6197981    2.1135581    4.0211956 
19415000    1.1019553 8.8994048e-05   0.49198381    0.0297213            0   0.46226251    1.6391585    2.1311423    5.1688058 
19420000    1.1004483 0.00010121457   0.49427034  0.052972298            0   0.44129804    1.6369168    2.1311871    5.5859778 
19425000    1.1259674 -2.0317375e-05   0.46557635  0.025511128            0   0.44006522    1.6748764    2.1404528     1.446953 
19430000    1.1398934 6.6961366e-06   0.45746899  0.015420668            0   0.44204832    1.6955915    2.1530605    2.3816219 
19435000    1.1030479 4.963883e-05   0.52413001  0.008679597            0   0.51545041    1.6407837    2.1649137    3.8592525 
19440000    1.1909391 6.5396977e-05   0.42055079  0.004841721            0   0.41570907    1.7715218    2.1920726    4.4242894 
19445000    1.1034397 -1.7285107e-05   0.53713667  0.022905597            0   0.51423107    1.6413666    2.1785032    1.5885049 
19450000    1.0711191 -0.00012057952   0.54242888  0.032519403            0   0.50990948    1.5932896    2.1357185   -1.9800625 
19455000    1.0733175 -0.00025197444   0.54583061  0.057460609            0      0.48837    1.5965597    2.1423903   -6.4583372 
19460000    1.0711879 -8.5809171e-05   0.52907481  0.019026708            0   0.51004811     1.593392    2.1224668  -0.80648628 
19465000    1.1349339 0.00015463861   0.41605412  0.015138768            0   0.40091535    1.6882142    2.1042683    7.3825995 
19470000     1.080117 3.3209743e-05   0.48578536  0.012376918            0   0.47340844    1.6066741    2.0924595    3.2260187 
19475000    1.0592028 3.5960463e-05   0.52733927  0.028837142            0   0.49850213    1.5755642    2.1029035    3.3303539 
19480000    1.0899629 2.3465148e-05   0.48539706  0.021542734            0   0.46385433    1.6213198    2.1067168    2.9076606 
19485000    1.1085037 -5.7774762e-05   0.46003356  0.028932185            0   0.43110138    1.6488992    2.1089328   0.13688755 
19490000    1.0840336 -0.00017466113   0.46541849  0.012816514            0   0.45260197       1.6125    2.0779185   -3.8838479 
19495000     1.066674 -2.7147048e-05   0.50186388  0.013338149            0   0.48852573    1.5866776    2.0885415    1.1619223 
19500000    1.0723858 0.00015815202   0.50205369  0.043772324            0   0.45828136    1.5951738    2.0972275     7.495483 
19505000    1.0771547 8.249251e-05   0.49008808  0.039396595            0   0.45069148    1.6022676    2.0923557       4.9081 
19510000    1.0220488 8.3986312e-05   0.56704209  0.072292638            0   0.49474945    1.5202976    2.0873397    4.9540725 
19515000    1.0816055 4.2019825e-05    0.4875045  0.052664967            0   0.43483953    1.6088882    2.0963927    3.5306694 
19520000    1.0501184 -4.9428669e-06   0.53561485  0.013361953            0    0.5222529    1.5620511     2.097666    1.9289495 
19525000    1.1102942 2.7939843e-05   0.45310633 0.0079847143            0   0.44512162    1.6515626     2.104669    3.0583489 
19530000    1.1107448 4.4859773e-05   0.45740183  0.025262425            0   0.43213941    1.6522329    2.1096347    3.6408483 
19535000    1.1430564 0.00012457177   0.37172289  0.015804491            0   0.35591839    1.7002965    2.0720194     6.324069 
19540000    1.0718652 8.9201628e-05   0.48033219 0.0029869035            0   0.47734529    1.5943995    2.0747317    5.1194806 
19545000    1.0412478 1.8705267e-05   0.52323184 0.0089001299            0   0.51433171     1.548856    2.0720879     2.710561 
19550000    1.1061816 9.7371391e-06   0.40657967  0.025270698            0   0.38130898    1.6454451    2.0520248    2.3843858 
19555000    1.1211765 -1.8255525e-05   0.40974302  0.023232717            0   0.38651031    1.6677501    2.0774931    1.4543712 
19560000    1.0929111 -0.00010945523   0.44334937  0.014195978            0   0.42915339    1.6257052    2.0690546   -1.6670173 
19565000    1.0602693 -6.2214787e-06   0.49415497  0.026891782            0   0.46726319    1.5771506    2.0713056    1.8589458 
19570000    1.0697518 0.00015052193   0.46950314  0.025180892            0   0.44432225    1.5912558     2.060759    7.1985742 
19575000    1.0473816 1.5761826e-05   0.47447986  0.036080147            0   0.43839972    1.5579802      2.03246    2.5704637 
19580000    1.0112528 -7.2591992e-05   0.54150663  0.038859321            0   0.50264731    1.5042385    2.0457451  -0.43206152 
19585000    1.0745657 5.8278439e-05   0.43864829  0.015947619            0   0.42270067    1.5984165    2.0370648    4.0263022 
19590000    1.0881716 1.3091993e-05   0.42539705  0.012716676            0   0.41268038    1.6186553    2.0440523    2.4909257 
19595000    1.0936466 -2.5568203e-05   0.42796862  0.032726071            0   0.39524255    1.6267994     2.054768      1.18204 
19600000    1.0036139 -3.1036194e-05   0.54227258  0.030041868            0   0.51223072    1.4928756    2.0351482   0.97577943 
19605000    1.1231137 -4.5616493e-05    0.3886967  0.029709816            0   0.35898689    1.6706317    2.0593284   0.50228544 
19610000    1.0667075 3.706621e-05   0.44843684  0.035561086            0   0.41287576    1.5867274    2.0351643    3.3003576 
19615000    1.0665075 7.7939556e-05   0.45904486   0.02105678            0   0.43798808    1.5864299    2.0454748    4.7058116 
19620000    1.0226298 0.00019830145    0.5398132  0.026864322            0   0.51294888    1.5211618     2.060975    8.8296645 
19625000    1.0489281 0.00015437699   0.50178671   0.02139791            0    0.4803888    1.5602805    2.0620672    7.3314684 
19630000    1.0205927 6.1875577e-05    0.5332487 0.0098413874            0   0.52340731    1.5181316    2.0513803       4.1634 
19635000    1.0645581 3.7423336e-05   0.47677246  0.016717422            0   0.46005504    1.5835302    2.0603026    3.3376859 
19640000   0.97988033  0.000114494   0.57987144  0.024152376            0   0.55571906     1.457572    2.0374434    5.9455053 
19645000    1.0246825  8.42306e-05   0.49965866  0.034170135            0   0.46548852    1.5242152    2.0238738     4.898945 
19650000    1.0252034 -9.3508303e-06   0.48394106  0.025608117            0   0.45833294      1.52499    2.0089311    1.6897561 
19655000   0.97426334 1.5726954e-05   0.54714927  0.013680168            0    0.5334691    1.4492167     1.996366    2.5331793 
19660000   0.94680328 0.00015079752   0.59539989   0.02872932            0   0.56667057    1.4083699    2.0037698    7.1509917 
19665000     1.071204 8.7601811e-05   0.39777138  0.025276437            0   0.37249494     1.593416    1.9911873    4.9813292 
19670000    1.0391539 -1.2580567e-05   0.47624107  0.023776078            0     0.452465    1.5457414    2.0219825    1.5925658 
19675000   0.99397768 -9.8268852e-05   0.55297518  0.015791102            0   0.53718408    1.4785418     2.031517   -1.3227265 
19680000    1.0528964 -0.00010281617   0.46990586   0.00767645            0   0.46222941    1.5661834    2.0360893   -1.4733692 
19685000    1.0586143 0.00011000003   0.44840057 0.00028979387            0   0.44811077    1.5746888    2.0230894    5.7777571 
19690000    1.0338937 0.00011296838   0.48554079 0.0044931603            0   0.48104763    1.5379169    2.0234576    5.8794451 
19695000   0.97554906 1.6621402e-05   0.53684654  0.012355967            0   0.52449058    1.4511292    1.9879758    2.5553196 
19700000    1.0303237 8.7530889e-05   0.44579601  0.015661056            0   0.43013496    1.5326065    1.9784026    4.9661236 
19705000   0.97678879 -4.9539925e-05    0.5270855  0.017855555            0   0.50922994    1.4529733    1.9800588   0.28909605 
19710000   0.96616372 -0.00017221251   0.54823336  0.037406428            0   0.51082693    1.4371685    1.9854019    -3.892785 
19715000   0.95992446 -8.3167102e-05   0.55350911  0.025243387            0   0.52826572    1.4278876    1.9813967  -0.85737368 
19720000    1.0176562 -7.2840975e-05   0.45452577  0.017531099            0   0.43699468    1.5137636    1.9682894  -0.51801592 
19725000    1.0257523 -0.00011168843   0.44903782  0.017589509            0   0.43144831    1.5258066    1.9748444   -1.8374538 
19730000   0.95835054 6.6382609e-06   0.52497083  0.027647988            0   0.49732284    1.4255464    1.9505173    2.1771032 
19735000   0.95489078 9.7885296e-05   0.49150802 0.0061299673            0   0.48537805       1.4204    1.9119081    5.2530595 
19740000   0.96369556 -4.5389988e-05    0.4483804  0.002050173            0   0.44633023    1.4334972    1.8818776   0.33256596 
19745000   0.98662969 -0.00012129832   0.42065587   0.01062145            0   0.41003442    1.4676117    1.8882675   -2.2520485 
19750000   0.83254182 -5.2730046e-05   0.64523971  0.050411819            0    0.5948279     1.238406    1.8836457  0.083793419 
19755000   0.87219641 2.1509266e-05   0.56858391   0.01541185            0   0.55317206    1.2973922    1.8659761     2.600159 
19760000   0.92751898 1.6548882e-05   0.50579056  0.013683374            0   0.49210718    1.3796845     1.885475    2.4503435 
19765000   0.93958196 5.2618894e-05   0.49754643   0.03219515            0   0.46535128    1.3976282    1.8951746    3.6912328 
19770000   0.93396189 -4.8944951e-05   0.51747223   0.02089291            0   0.49657932    1.3892683    1.9067405   0.23608622 
19775000   0.90659849 -7.5735803e-05   0.58044697  0.029952025            0   0.55049495    1.3485653    1.9290122  -0.65610319 
19780000    1.0049304 -1.8198164e-05   0.45754311  0.012646429            0   0.44489668     1.494834    1.9523771    1.3312131 
19785000   0.94966652 -3.4419221e-05   0.51213472  0.013670228            0    0.4984645     1.412629    1.9247637   0.74992094 
19790000   0.90531525 -9.0746873e-05   0.57399449  0.045688648            0   0.52830584    1.3466564    1.9206509   -1.1768424 
19795000   0.90632883 -6.4080235e-05   0.58216539  0.052355052            0   0.52981034    1.3481641    1.9303295   -0.2569425 
19800000   0.91894789 -2.5802409e-05   0.56419081  0.064196773            0   0.49999404     1.366935    1.9311258    1.0504036 
19805000   0.91735898 -1.9478659e-05   0.55538635  0.035067915            0   0.52031844    1.3645715    1.9199578    1.2550863 
19810000   0.92004392 7.5467596e-05   0.57608088  0.051053848            0   0.52502703    1.3685653    1.9446462    4.5206068 
19815000   0.97870953 6.2681277e-05   0.47836051   0.03322023            0   0.44514028    1.4558304    1.9341909    4.0737119 
19820000   0.99165465 -0.00013634313   0.47118292  0.012038882            0   0.45914404    1.4750863    1.9462692   -2.7075762 
19825000   0.97401902 -4.1028563e-05   0.51508496   0.02341624            0   0.49166872    1.4488533    1.9639382   0.56349664 
19830000   0.98808339 3.4283853e-05   0.51332065  0.035213119            0   0.47810753     1.469774    1.9830947    3.1533169 
19835000   0.98653321 -0.00011711014   0.50517279  0.018116054            0   0.48705674    1.4674681    1.9726409   -2.0247183 
19840000    1.0094619 -7.9284218e-05   0.48139866 0.0072017905            0   0.47419687    1.5015746    1.9829732  -0.72326141 
19845000    1.0006295 -2.0536335e-05   0.51337976  0.010349327            0   0.50303043    1.4884363    2.0018161    1.3008425 
19850000    1.0365997 -2.667655e-05   0.47339966 0.0051559696            0   0.46824369     1.541942    2.0153417    1.1047821 
19855000    1.0789316 -4.2963042e-05   0.39726772  0.010323292            0   0.38694443    1.6049108    2.0021785   0.53570665 
19860000   0.94751965 -6.64538e-05   0.57966433  0.020275812            0   0.55938852    1.4094355    1.9890998   -0.2791899 
19865000   0.98489567 -3.9853662e-05   0.49271639  0.014637992            0    0.4780784    1.4650323    1.9577487   0.59741038 
19870000   0.98255048 1.7088769e-05   0.51987487  0.015471539            0   0.50440333    1.4615438    1.9814187    2.5647154 
19875000   0.96052433 -0.00016496534   0.55720779  0.034333898            0    0.5228739    1.4287799    1.9859877   -3.6448291 
19880000   0.99264262 -1.8439667e-05   0.50879888  0.014724465            0   0.49407442    1.4765559    1.9853548    1.3559475 
19885000   0.97569482 -1.4803649e-05   0.52994617  0.017896117            0   0.51205005     1.451346    1.9812922    1.4759943 
19890000   0.98214917 -5.9568203e-05   0.50962197  0.090990784            0   0.41863118    1.4609469    1.9705689 -0.062692479 
19895000    1.0258206 -4.8334468e-05   0.47117574  0.035037823            0   0.43613792    1.5259082    1.9970839   0.34726742 
19900000    1.0272404 3.3637594e-05   0.48164312   0.02958136            0   0.45206176    1.5280201    2.0096632    3.1578265 
19905000     1.001762 4.2366268e-05   0.54633745  0.040650657            0   0.50568679     1.490121    2.0364585    3.4825604 
19910000    1.0210809 -1.6125032e-05   0.53388438  0.021703705            0   0.51218068    1.5188578    2.0527422    1.5023411 
19915000    1.0328104    7.754e-05    0.4978252 0.0095683801            0   0.48825682    1.5363055    2.0341307    4.6808294 
19920000    1.0373404 -2.5531116e-05   0.47063368 0.0089104179            0   0.46172326    1.5430439    2.0136775    1.1422154 
19925000   0.99720213 -0.00021816819   0.52662163 0.0072652935            0   0.51935634    1.4833382    2.0099598   -5.4368478 
19930000     1.007039 -5.9844569e-06    0.5341294 0.0059150606            0   0.52821434    1.4979705    2.0320999    1.8278305 
19935000    1.0541427 0.00010646049   0.45364738 0.0078503328            0   0.44579705    1.5680373    2.0216846    5.6555359 
19940000     0.971073 6.7050338e-05    0.5519561   0.01508357            0   0.53687253    1.4444711    1.9964272    4.2850787 
19945000    1.0103277 5.291457e-05   0.49576078  0.018303861            0   0.47745692    1.5028625    1.9986232    3.8047739 
19950000    1.0430068 5.6897364e-05   0.46654547 0.0031567141            0   0.46338875    1.5514727    2.0180182    3.9601148 
19955000    1.0044122 3.2035679e-05   0.50583618 0.0016163256            0   0.50421985    1.4940631    1.9998993    3.0933838 
19960000     1.033475 -4.7409486e-05   0.46267426  0.015928594            0   0.44674567    1.5372941    1.9999684   0.38172459 
19965000   0.96222844 -3.5289904e-05   0.55142265  0.028043721            0   0.52337893    1.4313148    1.9827375   0.77817539 
19970000   0.97330462 0.00013239718   0.52452114  0.015527678            0   0.50899346    1.4477906    1.9723118     6.491469 
19975000    1.0043002 0.0001858996   0.46253105  0.013526965            0   0.44900408    1.4938965    1.9564276    8.3018007 
19980000   0.96209704 1.5343305e-05   0.51123692  0.024902509            0   0.48633441    1.4311193    1.9423563    2.4660744 
19985000   0.96504996 -0.00012603917   0.52414523  0.033335184            0   0.49081004    1.4355118     1.959657   -2.3424798 
19990000   0.99510099 -1.9618465e-05    0.4917256  0.017666696            0    0.4740589    1.4802127    1.9719383    1.3022947 
19995000    1.0383726 0.00012554473   0.45042451 0.0049403003            0   0.44548421    1.5445792    1.9950037     6.280264 
20000000   0.98235101 1.9329083e-07   0.54607738 0.0033074698            0   0.54276991    1.4612471    2.0073245    2.0139222 
Loop time of 228.535 on 1 procs for 20000000 steps with 120 atoms

Performance: 75612.114 tau/day, 87514.021 timesteps/s
99.7% CPU use with 1 MPI tasks x no OpenMP threads

MPI task timing breakdown:
Section |  min time  |  avg time  |  max time  |%varavg| %total
---------------------------------------------------------------
Pair    | 11.651     | 11.651     | 11.651     |   0.0 |  5.10
Bond    | 34.707     | 34.707     | 34.707     |   0.0 | 15.19
Neigh   | 20.129     | 20.129     | 20.129     |   0.0 |  8.81
Comm    | 50.793     | 50.793     | 50.793     |   0.0 | 22.23
Output  | 0.6439     | 0.6439     | 0.6439     |   0.0 |  0.28
Modify  | 102.23     | 102.23     | 102.23     |   0.0 | 44.73
Other   |            | 8.375      |            |       |  3.66

Nlocal:        120.000 ave         120 max         120 min
Histogram: 1 0 0 0 0 0 0 0 0 0
Nghost:        0.00000 ave           0 max           0 min
Histogram: 1 0 0 0 0 0 0 0 0 0
Neighs:        45.0000 ave          45 max          45 min
Histogram: 1 0 0 0 0 0 0 0 0 0

Total # of neighbors = 45
Ave neighs/atom = 0.375
Ave special neighs/atom = 5.9000000
Neighbor list builds = 4098
Dangerous builds = 0
write_restart restart.equil
System init for write_restart ...
WARNING: Communication cutoff 1.4200000000000002 is shorter than a bond length based estimate of 1.8. This may lead to errors. (../comm.cpp:667)
#--------------End of Input file ------------------
Total wall time: 0:03:48
